1
Lattice="20.0 0.0 0.0 0.0 20.0 0.0 0.0 0.0 20.0" Properties=species:S:1:pos:R:3:forces_xtb:R:3:MACE_forces:R:3 config_type=IsolatedAtom energy_xtb=-10.707211383396714 MACE_energy=-10.707211383396714 pbc="F F F"
H        0.00000000       0.00000000       0.00000000      -0.00000000      -0.00000000      -0.00000000      -0.00000000      -0.00000000      -0.00000000
1
Lattice="20.0 0.0 0.0 0.0 20.0 0.0 0.0 0.0 20.0" Properties=species:S:1:pos:R:3:forces_xtb:R:3:MACE_forces:R:3 config_type=IsolatedAtom energy_xtb=-48.847445262804705 MACE_energy=-48.847445262804705 pbc="F F F"
C        0.00000000       0.00000000       0.00000000      -0.00000000      -0.00000000      -0.00000000      -0.00000000      -0.00000000      -0.00000000
1
Lattice="20.0 0.0 0.0 0.0 20.0 0.0 0.0 0.0 20.0" Properties=species:S:1:pos:R:3:forces_xtb:R:3:MACE_forces:R:3 config_type=IsolatedAtom energy_xtb=-102.57117256025786 MACE_energy=-102.57117256025786 pbc="F F F"
O        0.00000000       0.00000000       0.00000000      -0.00000000      -0.00000000      -0.00000000      -0.00000000      -0.00000000      -0.00000000
24
Properties=species:S:1:pos:R:3:molID:I:1:forces_xtb:R:3:MACE_forces:R:3 Nmols=3 Comp=VC(3) energy_xtb=-1602.093208085042 MACE_energy=-1601.2187165428759 pbc="F F F"
C        0.45285612       3.01426506      -2.32330513        0       3.62106606      -1.12550680      -0.19684125       3.39288548      -1.10499423      -0.44668980
C       -0.65326887       3.32036090      -1.70732403        0      -1.81489737       1.01194504      -0.49020132      -1.97314687       0.83395458      -0.09732123
O       -0.82637185       2.63587189      -0.55307001        0       1.41031489      -1.26663628       0.06188905       1.44012035      -1.18206855      -0.37318707
C        0.26635113       1.80842292      -0.42423803        0       1.27416396       1.38844752      -1.73986379       1.48070990       1.29830207      -0.40301395
O        0.50404215       1.07012391       0.47730500        0      -0.61981038       0.63996309      -0.89362449      -0.75239638       0.87425170      -1.94659655
O        1.20395112       2.09938192      -1.54059100        0      -3.53123319       0.61084665       1.50360436      -3.40055372       0.49210800       1.27873464
H        0.99488211       3.42258286      -3.19497991        0      -0.71396603      -0.51942534       0.75149469      -0.57966359      -0.44052910       0.77512973
H       -1.42996383       3.95062685      -2.12583590        0       0.03097542      -0.19964488       0.59769880       0.11020778      -0.28099593       0.55552400
C        1.26803315       0.08491497       2.52308202        1       0.65480947      -1.14022036       2.08585961       0.63696547      -1.00892453       2.46437208
C        0.71784115      -0.92897701       3.20788789        1      -5.26405952       0.22643523       1.88452821      -4.96036214      -0.02181472       2.22745011
O        0.64552510      -2.02956414       2.40690088        1       0.96823076      -0.94201777       0.52119636       0.89447974      -0.79226639       0.57311835
C        1.62233818      -1.82807600       1.46278298        1      -0.41482569      -1.20143422      -1.22733270      -0.30948343      -1.88948997      -1.36704418
O        2.07954812      -2.65240097       0.69964898        1      -0.91853127       1.45343521       1.43428658      -0.83632856       1.61834436       1.62324580
O        1.90033615      -0.53814703       1.52785194        1       2.51044506       0.92653883      -1.79500979       2.18878766       1.46848159      -2.17337484
H        1.60973608       0.97362196       3.01618791        1       0.04719281       0.33493254      -0.77449250       0.04471695       0.17523275      -0.59912772
H       -0.23638988      -0.89091206       3.98334789        1       2.80150221      -0.10651323      -1.71485168       2.80356026      -0.02402141      -1.86987805
C       -2.61711597      -1.50253499       0.01472599        2       0.50478395       2.47864959      -1.00566519       0.09511730       2.10638031      -1.12213032
C       -1.65134692      -2.33284712      -0.23200200        2       2.75766410      -1.01761516      -0.45354364       2.30078147      -1.22491764      -0.66771250
O       -0.75461686      -1.64041007      -1.12287402        2      -0.07451072      -2.49583912       0.90103163       0.38617669      -2.32295198       0.91496938
C       -1.23930693      -0.42871904      -1.39447701        2       0.29818897      -0.80850703      -0.94432786       0.33085885      -0.37237712      -0.73707957
O       -0.76134789       0.30777997      -2.22421694        2      -0.98455609      -0.47602768       1.41198409      -1.01573099      -0.60587357       1.00653910
O       -2.37302589      -0.32890302      -0.69123900        2      -1.25788384       1.06603386       0.34345775      -1.21103887       1.07317561       0.34947187
H       -3.27383399      -1.43262005       0.79540098        2      -1.76535623      -0.00240229       1.06447075      -1.43837295       0.10706357       1.22553884
H       -1.51131582      -3.31143308       0.29795000        2       0.48029268       1.16456260      -1.32574766       0.37170961       1.22393059      -1.19093813
22
Properties=species:S:1:pos:R:3:molID:I:1:forces_xtb:R:3:MACE_forces:R:3 Nmols=2 Comp=DMC(1):EC(1) energy_xtb=-1151.6688033579703 MACE_energy=-1151.275024049161 pbc="F F F"
C        2.69088602       2.54591513      -2.12696218        0      -1.44302882       4.71896954       1.76744346      -1.44889553       4.66005332       1.69146440
O        2.34068704       3.64524508      -1.67616713        0       0.49261950      -2.16502856      -0.87601464       0.50620637      -2.31427140      -0.84243946
O        1.94911408       1.49887204      -2.25967312        0       0.08290276      -1.50319163      -0.60949423       0.13263433      -1.37171474      -0.31108175
O        3.84929514       2.26471615      -2.58353305        0       2.38826982      -1.13778665      -0.64777106       2.37869093      -1.06334604      -0.63498360
C        0.58085805       1.60748911      -2.26327205        0      -1.67246761      -0.37329840      -0.89736654      -1.74388494      -0.30803664      -1.03513372
C        4.93368006       3.14626217      -2.62285423        0       2.55973756      -0.98252846      -1.05991298       2.44846922      -0.81925933      -1.09469003
H        0.20010208       1.35155511      -1.32161117        0      -0.59307375      -0.34573938       1.76688746      -0.50746814      -0.42390390       1.62853575
H        0.13602108       2.57295012      -2.51098919        0       0.55033615       0.21276971      -0.24590246       0.54415068       0.20538512      -0.26786745
H        0.19209708       0.83466810      -2.94893003        0       0.20277521       0.32784010      -0.10811587       0.27803536       0.39013719      -0.01208452
H        5.82548094       2.54683304      -3.02168822        0      -1.01599830      -0.01199392       0.62864621      -1.13289524       0.03566552       0.68555074
H        4.87149000       3.85138416      -3.42286325        0      -0.77010801       1.05527897      -0.16147346      -0.73070010       0.95621924      -0.27396980
H        5.33360624       3.57181811      -1.71259320        0      -0.78097032       0.20739009       0.44230873      -0.72434295       0.05307166       0.46669945
C       -3.41220593      -1.40147686       1.27721584        1       3.64054136      -2.81566267       1.08263902       3.80044489      -2.60265431       1.01262980
O       -2.92165089      -1.47329795       2.67879891        1      -1.00730296       1.23045966      -1.84974758      -1.41093524       1.19786687      -1.61206590
C       -2.61571789      -2.75121093       2.98010492        1       2.01716624       2.21029162       2.34244272       1.59999296       1.96782856       2.48200540
O       -3.01706386      -3.61698890       2.14714384        1      -0.84185866      -0.82087526      -3.92810567      -0.62339321      -0.41333008      -3.55299019
C       -2.94653201      -2.85366082       0.89804888        1      -1.06634372      -0.75061646      -0.84421464      -0.80106089      -0.89808757      -1.31506397
H       -4.42421579      -1.24309289       1.20551991        1      -2.15521241       0.42518767       0.11001940      -2.19785975       0.55848142       0.17894584
H       -2.80409384      -0.83304894       0.58278483        1      -0.06996537       1.03528950       0.60791017      -0.04333089       0.97000252       0.54186028
O       -1.86870396      -2.94726801       3.88132596        1      -0.13940783      -0.44661913       1.10839100       0.14332118      -0.53877090       0.96609091
H       -3.50762296      -3.30938387       0.07090886        1      -0.53079339      -0.18326027       0.61016437      -0.60687951      -0.27732474       0.66211703
H       -1.93009996      -2.85789800       0.47551787        1       0.15218256       0.11312392       0.76126658       0.13970045       0.03598823       0.63647082
25
Properties=species:S:1:pos:R:3:molID:I:1:forces_xtb:R:3:MACE_forces:R:3 Nmols=2 Comp=DMC(1):PC(1) energy_xtb=-1237.237209489243 MACE_energy=-1236.8354190746747 pbc="F F F"
C        2.67575073       2.86108518      -2.86082530        0      -1.30097570      -1.36862690       1.83477318      -0.91563015      -1.59760181       1.83599377
O        2.76785755       3.16294599      -1.37367737        0       2.81754333       3.21457277      -4.01299763       2.92048039       3.37022794      -4.10690247
C        2.53783751       2.18929100      -0.59767431        0      -0.55950426       2.04121600       5.40751014      -0.76628255       2.28709251       5.41266500
O        1.93164957       1.26053202      -1.20610726        0      -1.61137385      -3.50925478      -2.49817815      -1.50197893      -3.56057099      -2.53676778
C        1.75701964       1.53768110      -2.68214726        0       1.83647158       0.68400742       2.01585908       1.43985551       0.50732810       1.91806625
C        1.82226360       3.92414308      -3.45830131        0      -0.23871064       0.37550063      -1.29201094      -0.48586378       0.37917258      -1.28392662
H        3.62236261       2.79383111      -3.48461127        0      -0.71111490      -0.40100834       1.51896640      -0.67016520      -0.32085446       1.61528985
O        2.62325168       2.39863515       0.62851471        0       0.06653047      -1.57737196      -3.09928319       0.16745175      -1.66005930      -2.94884262
H        0.69594961       1.78663802      -2.79194736        0       0.33209784      -0.31548514      -0.25553672       0.35230994      -0.44765295      -0.27650392
H        2.12722850       0.64140809      -3.18146920        0      -0.32683081       0.22616509      -0.09842209      -0.26814743       0.37527927      -0.13127034
H        0.94558364       4.07772589      -2.83702040        0       0.23616695       0.63635891       0.22349728       0.19775518       0.70307860       0.28549511
H        2.44793057       4.83902597      -3.65341330        0      -1.11245845      -0.83020881       0.14549641      -0.97892193      -0.92664863       0.15547814
H        1.39495564       3.45968413      -4.37784052        0       0.56515652       0.82509144       0.10667999       0.50913720       0.89120916       0.06122563
C       -2.77969742      -2.77740502       1.95494866        1       1.98409950      -0.14078010      -1.93362978       1.70790423       0.10920343      -2.02197403
O       -3.66863132      -2.42830992       2.60583663        1      -2.90542638       1.44794122       1.50300244      -2.77604721       1.37720765       1.43648174
O       -2.29131937      -2.42984796       0.79584169        1      -1.00253771       3.19629893      -3.24858669      -0.92802337       2.96650022      -3.20673970
O       -1.89286339      -3.66918087       2.21758556        1       1.54786360      -2.60940773       1.41288002       1.53128532      -2.45962758       1.28818539
C       -2.91089439      -1.28356600       0.07705668        1       1.89642600      -1.15162137      -0.78334730       1.89109610      -1.04019052      -0.77946977
C       -2.05939937      -4.26767588       3.43624568        1       0.99074494      -3.64001500       0.93542783       0.99699986      -3.92578216       1.42812233
H       -3.72709346      -1.70948493      -0.53036433        1       0.38969980       0.63617318       0.22162127       0.39449504       0.60357606       0.15200690
H       -3.16581345      -0.57542592       0.80696666        1      -1.04987185       0.78259073       0.93248256      -1.02769978       0.82278602       0.94958799
H       -2.09199142      -0.74095094      -0.52423334        1      -1.07479040      -1.32118166       0.47894917      -1.11385505      -1.27119521       0.45036371
H       -1.32394242      -5.09556913       3.62502956        1      -0.15739394       0.56448693      -0.84804908      -0.11051296       0.55663999      -0.89248384
H       -1.93663037      -3.67549205       4.25493479        1       0.62014139       2.56192162       2.09449974       0.66802133       2.58404543       2.01218836
H       -2.99357438      -4.73741913       3.66374469        1      -1.23195305      -0.32736309      -0.76160393      -1.23366353      -0.32316333      -0.81626909
27
Properties=species:S:1:pos:R:3:molID:I:1:forces_xtb:R:3:MACE_forces:R:3 Nmols=2 Comp=DMC(1):EMC(1) energy_xtb=-1265.180028034832 MACE_energy=-1264.805440766321 pbc="F F F"
C       -2.03106403       0.65746909       0.26760513        0       0.98555934      -0.42535498      -0.10633788       0.77148266      -0.32012588      -0.17849016
O       -1.07807493       0.48504212       1.01702011        0      -2.17789891       0.87992234      -2.16891800      -1.87646052       0.83478336      -2.04232142
O       -3.26775193       0.23020512       0.42069915        0      -0.74313263      -0.38011230      -0.33893217      -0.59963949      -0.33912283      -0.46958089
O       -2.21094799       1.20861411      -0.95951784        0       2.83182507       0.12702591      -0.60351812       2.97890364       0.24481871      -0.75331943
C       -3.54576588      -0.43989488       1.59327912        0      -0.55223350       0.92076065       2.17889453      -0.54667307       0.84389174       2.30827187
C       -0.96694797       1.71850216      -1.62740982        0      -2.55346537      -0.97363999      -0.17803650      -2.73896006      -0.93070151      -0.10042412
C       -5.02091789      -0.62569290       1.77413309        0      -2.43043276      -3.38432755      -1.10590042      -2.54860369      -3.47563561      -1.03534827
H       -3.05448604      -1.41090190       1.60176313        0       0.36670347       0.08595527       0.39358467       0.34429121       0.04107134       0.35578991
H       -3.22410202       0.31734413       2.37260509        0       0.18724531      -1.36618818       0.08940653       0.20487217      -1.33731323       0.05592537
H       -0.72410798       2.40959311      -0.88021588        0       1.32314528       1.44888278       0.16549100       1.36146278       1.41792965       0.14904787
H       -0.25252098       0.92709315      -1.77050185        0       0.18392482      -0.28990190       0.25588645       0.22862498      -0.25440304       0.11352191
H       -5.35431385      -1.19761384       2.70942616        0       0.98390135       0.83072053      -1.14347294       0.89626073       0.79756229      -1.08741661
H       -5.65353584       0.21069811       1.69021618        0      -0.07093223       1.50044560       0.24868063      -0.06526330       1.51592421       0.22849243
H       -5.48677492      -1.27245092       0.88484311        0       1.25100885       0.82632357       1.54819069       1.32173853       0.87993139       1.56718920
H       -1.31561697       2.06881022      -2.61999083        0       0.27156532       0.17735849       0.84257396       0.31065064       0.08711915       0.86711724
C        2.86216998      -0.54789591      -0.30648586        1      -1.29999496       2.83588086       0.24865513      -1.16726971       2.93930878      -0.09928802
O        2.04342008       0.15615812       0.27660215        1       1.24049576      -2.48924095       0.49428262       0.97581514      -2.45260072       0.76942634
O        3.26260614      -0.10306588      -1.49444783        1       0.72998208      -0.98746920      -0.72248560       0.70778487      -1.06859705      -0.41762961
O        3.59369302      -1.61061084      -0.04163986        1       0.26854721       0.34168970       0.19012287       0.14191558       0.36721626       0.24786567
C        2.62956214       0.98352611      -2.09231687        1      -0.27224153       1.06504974      -0.20527242      -0.25340838       1.04020983      -0.35625168
C        3.55574894      -2.15067077       1.29780114        1      -1.62342756       0.93331613      -1.30990327      -1.57066347       0.74402801      -1.38150246
H        1.88944602       0.64559013      -2.80296278        1      -0.24807240      -0.30642385      -0.38656659      -0.19387367      -0.26010505      -0.33575413
H        2.08495712       1.70345008      -1.42564690        1       0.87038645      -0.68158457      -0.08896534       0.82256022      -0.68222220      -0.19449843
H        3.46013594       1.43517017      -2.62836289        1      -0.20121891       0.54651175      -0.12191244      -0.27180077       0.55040532      -0.08599371
H        4.11010695      -3.05958986       1.20176017        1       0.94234581      -0.03528665       0.59829777       0.94315617       0.05168067       0.61817980
H        3.79936910      -1.30624783       1.98418510        1      -0.03427572      -1.25933599      -0.12544949       0.02425670      -1.25431852      -0.12659986
H        2.50926495      -2.46688581       1.28762710        1      -0.22930963       0.05902281       1.35160434      -0.20115988       0.01926493       1.38359118
40
Properties=species:S:1:pos:R:3:molID:I:1:forces_xtb:R:3:MACE_forces:R:3 Nmols=4 Comp=EC(4) energy_xtb=-2248.1644835301763 MACE_energy=-2246.7057501162444 pbc="F F F"
C       -0.45859733       3.28287387      -3.49498057        0      -1.02964088       2.44036197      -2.62142183      -0.91925001       2.17656523      -2.55667944
O        0.88948870       3.79171300      -3.25429845        0      -2.44024720      -0.78844767       0.70340402      -2.50898038      -0.42362618       0.86659954
C        1.77967572       2.90106797      -3.77192235        0       0.17839822       3.88313800      -0.31232209       0.93432902       3.81948921      -0.12352397
O        1.17627263       1.93414199      -4.35922432        0      -0.15995377      -2.00047855      -0.64709496      -0.20012761      -2.13335928      -0.58038022
C       -0.21532533       1.93098700      -4.04651356        0      -0.23860181      -3.35198939       0.13525636      -0.44986568      -3.34546953       0.06541076
H       -1.27154136       3.41099501      -2.76392436        0       1.11580969      -0.14261261       0.41614468       1.05519000      -0.01326954       0.59577864
H       -0.92158234       3.83359003      -4.43693542        0       1.01129830      -0.01693160       1.54962332       0.95214178      -0.09850729       1.56548944
O        2.90443778       3.31073308      -3.80425644        0       0.38751531      -1.65296589      -0.21742359       0.19080538      -1.53520359       0.04727437
H       -0.37066332       1.10437799      -3.21093941        0       0.06712425       1.07272958      -1.56852920      -0.01498907       1.11669488      -1.76873179
H       -0.76461333       1.62513399      -5.02565050        0       0.72730400       0.51091119       1.75312419       0.76722004       0.46132915       1.74904376
C       -3.80103922      -2.50376415       2.43770266        1      -1.00674411       0.71035417      -3.12390011      -0.90998586       0.68590228      -3.03772042
O       -3.38939834      -3.25377202       1.26028454        1       0.86604768      -0.66337216       0.52313075       0.57059041      -0.91253189       0.67318032
C       -2.30445933      -3.99550915       1.61562252        1       2.89373971      -0.24361420      -2.22550806       2.98350444      -0.57637602      -2.61106545
O       -2.14457035      -4.05070019       2.94205546        1      -0.67962715       0.54789211      -0.54771738      -0.66319766       0.43819234      -0.43055100
C       -2.87330842      -2.91826797       3.46709847        1       1.56061260      -1.69201553       3.42490023       1.47644035      -1.58632680       3.32858170
H       -3.50343823      -1.48718607       2.20085359        1      -0.75929802       0.62954262      -0.30100640      -0.76973886       0.80167622      -0.17787550
H       -4.90017223      -2.60740995       2.47806549        1       0.54052099      -0.11388727       0.50508620       0.56189815      -0.01380084       0.40474447
O       -1.42242634      -4.39646721       0.83060056        1      -3.30253559       0.80649153       2.09357706      -3.30465787       1.06198077       2.21339828
H       -2.05277324      -2.11510110       3.58914661        1      -1.30202574      -1.14077677       0.77284507      -1.26786233      -1.02130797       0.86574905
H       -3.41370034      -3.34911704       4.41145039        1       1.25499681       1.17876329      -1.12773283       1.36294118       1.24858453      -1.22945840
C        2.30157065       3.02082801      -0.87318546        2       2.05473850       0.98566782       0.38669201       1.36857975       0.90228473       0.05864282
O        1.55322373       4.09202099      -0.41163146        2      -1.49998819       0.19168174      -0.62351492      -1.11547619       0.14167724      -0.78746992
C        0.22185968       3.76526093      -0.52127045        2      -0.59176904       3.63828609       2.40993820      -1.17297860       3.13526433       2.56893772
O        0.00528267       2.46501303      -0.45626047        2       2.80117283      -0.67423269      -2.07082363       2.88143650      -0.16321929      -1.90232755
C        1.41516268       1.88063395      -0.86391044        2      -4.14718597      -3.45500107       0.38067975      -3.71456270      -3.36404929       0.36619569
H        2.83828473       3.31009007      -1.79112947        2      -0.49467311      -0.24972666      -0.00772500      -0.33834484      -0.18702792      -0.16772768
H        3.08249879       2.85036993      -0.17078246        2       1.02991433      -0.06948351       1.03564458       0.98804916      -0.09410584       0.84233844
O       -0.57856935       4.68077612      -0.37167346        2       0.95681577      -2.54881062      -0.79633335       1.08336101      -2.41914178      -0.94529847
H        1.33951473       1.28182793      -1.79590452        2      -0.33893043       0.88495502      -0.16935120      -0.28662634       0.78091715      -0.07724055
H        1.47189569       0.99151593      -0.16966246        2       0.60043592       1.35766190       0.25726959       0.50165879       1.17976777       0.20342852
C        0.88761669      -2.09321308       0.81132352        3      -3.70423616      -0.54123346      -1.44430376      -3.76145355      -0.32775196      -1.75641059
O        0.03761967      -1.97608399       2.01637745        3      -0.19455703       2.74456809      -1.17131930      -0.21854572       2.48514193      -1.07114398
C        0.60278767      -2.53470492       3.05735755        3       0.83635149      -2.68859326       0.63951379       0.48759303      -2.35948228       0.96702154
O        1.52326167      -3.40426898       2.49319744        3       0.03483702      -0.86690659       1.99679364      -0.00316934      -1.18333107       1.91121292
C        1.51099765      -3.45389700       1.07032657        3       0.35855844       2.96666867       1.81723816       0.54608630       3.09602720       1.96072073
H        0.08297767      -2.01841211      -0.05692146        3       1.41167270      -0.55782875       1.48250804       1.44332614      -0.43880479       1.59052447
H        1.59659469      -1.32058406       0.56207752        3       0.19832599       0.54328106       0.92742040       0.12988314       0.51263221       0.71941702
O        0.34869966      -2.52002215       4.24030066        3       0.33005817       0.61831501      -2.51404155       0.31703101       0.56943285      -2.40821139
H        1.02420068      -4.25862026       0.65650052        3      -1.23837654      -1.83379367      -0.57210434      -0.92703505      -1.88261237      -0.65300912
H        2.53591371      -3.38821101       0.90628552        3       1.91214201      -0.41856793      -1.14861653       1.94478205      -0.53425449      -1.27886479
30
Properties=species:S:1:pos:R:3:molID:I:1:forces_xtb:R:3:MACE_forces:R:3 Nmols=3 Comp=EC(3) energy_xtb=-1687.2692238458048 MACE_energy=-1686.2422923811964 pbc="F F F"
C       -4.12463999      -1.38331330      -2.42669320        0       0.09104650      -0.15763039       0.98994118       0.05882874      -0.09858345       0.98630151
O       -4.85671186      -0.58527428      -3.29135799        0      -0.98012076       1.37422403      -0.74262993      -0.85396267       1.02299499      -0.57067666
C       -4.90107059      -1.11834621      -4.56758595        0      -1.12794931       0.67673822       1.08467529      -1.11278649       0.71036301       0.92448553
O       -4.02001286      -2.08291125      -4.62866592        0       1.45807675      -0.89482105      -0.32429035       1.45157971      -0.77343069      -0.42551203
C       -3.24393392      -2.16244316      -3.42454815        0      -3.01201907      -1.17568812       0.95868559      -2.83153531      -1.13382137       1.10258429
H       -3.52626491      -0.84614927      -1.66835916        0      -0.08465048       0.41016128      -0.70877470      -0.07845559       0.37244698      -0.66012393
H       -4.85408068      -1.92120123      -1.77655911        0       0.41580059      -0.47198054      -0.69237947       0.33609865      -0.29210776      -0.57541673
O       -5.69529676      -0.78748024      -5.39322805        0       0.89551726      -0.15010949       0.47420076       0.78792466      -0.17760087       0.44519400
H       -2.31512570      -1.72622728      -3.47138715        0       2.10108454       0.96385609      -0.69241821       2.09797485       0.92346053      -0.71379760
H       -3.18651271      -3.17717123      -3.06380701        0       0.22651304      -0.58505138      -0.34151321       0.16726529      -0.64308154      -0.44629654
C        0.30978417      -0.65456825      -0.57457012        1       2.58552324      -0.84180302       0.97681712       2.51171027      -0.87919001       1.08002913
O       -0.88102782      -1.13273120      -0.17320210        1      -2.67352084      -0.34970297       1.23867786      -2.54264117      -0.26689426       1.27541815
C       -1.14308679      -2.33998322      -0.65088713        1       1.53931777       0.53508340      -2.08839916       1.46152272       0.68989108      -2.17439870
O       -0.15073483      -2.73469424      -1.49947405        1       1.74784525       0.60110252       0.75866028       1.91436827       0.43648023       0.85307468
C        0.98336518      -1.88646221      -1.22591114        1       0.75148662       0.75502601      -0.96806784       0.74496878       0.81893263      -1.09805025
H        0.22791818       0.14389074      -1.23837507        1      -0.32078005       1.57333470      -1.09122087      -0.26274434       1.61965329      -1.01550876
H        0.85364717      -0.37587824       0.35009891        1       0.08096431       0.30423257      -0.47223783       0.02383271       0.40389730      -0.38796440
O       -2.14108491      -2.93444228      -0.60166711        1      -2.03810674      -1.00249535       0.83374200      -2.29511556      -1.07638890       0.74894103
H        1.68404114      -1.63605428      -2.08693218        1      -1.57307414      -0.35718140       0.27611214      -1.51919048      -0.46648820       0.14616950
H        1.70171022      -2.23403931      -0.50286508        1      -0.08203307      -1.21664304       0.52584898      -0.05964305      -1.19053299       0.50554777
C        3.67231321       2.92746186       3.89800692        2      -0.55411990      -1.22280470       1.96551821      -0.58159521      -1.21261020       1.87000515
O        4.82196808       2.26200986       4.53771782        2      -2.75631484      -2.23145319      -0.78421429      -2.81411941      -2.23364175      -0.64232017
C        5.47337103       3.08063078       5.26452112        2       3.23302845       2.21541170       1.04417750       3.40757568       2.00564129       0.93412822
O        5.27526140       4.36545181       4.83315992        2      -0.63050348      -0.47204356      -0.05615252      -0.56206033      -0.53062688      -0.12140464
C        4.28790140       4.29067278       3.83464384        2      -0.82883767       2.07491570      -0.60316602      -0.95684526       2.21708305      -0.60839719
H        3.43658614       2.38041568       2.99494600        2       0.38128142       0.23686614      -0.39144115       0.41235500       0.12943294      -0.34930782
H        2.68566012       2.82074285       4.53663397        2       1.86752376       0.29129061      -0.53946525       1.89188291       0.29189827      -0.66560095
O        6.34440804       2.87332678       6.06447983        2      -1.10951032      -0.52041832      -0.39576775      -1.11333430      -0.43347420      -0.23930940
H        4.68179321       4.43559790       2.83605695        2       0.74582793       0.04762879      -0.35222316       0.61466005       0.08138256      -0.33403757
H        3.64824009       5.17260456       3.99479294        2      -0.34929678      -0.41004525       0.11730479      -0.29851911      -0.31508507       0.15624438
28