1
Lattice="20.0 0.0 0.0 0.0 20.0 0.0 0.0 0.0 20.0" Properties=species:S:1:pos:R:3:forces:R:3 config_type=IsolatedAtom energy=-10.7072114944458 pbc="F F F"
H        0.00000000       0.00000000       0.00000000      -0.00000000      -0.00000000      -0.00000000
1
Lattice="20.0 0.0 0.0 0.0 20.0 0.0 0.0 0.0 20.0" Properties=species:S:1:pos:R:3:forces:R:3 config_type=IsolatedAtom energy=-48.84744644165039 pbc="F F F"
C        0.00000000       0.00000000       0.00000000      -0.00000000      -0.00000000      -0.00000000
1
Lattice="20.0 0.0 0.0 0.0 20.0 0.0 0.0 0.0 20.0" Properties=species:S:1:pos:R:3:forces:R:3 config_type=IsolatedAtom energy=-102.57117462158203 pbc="F F F"
O        0.00000000       0.00000000       0.00000000      -0.00000000      -0.00000000      -0.00000000
24
Properties=species:S:1:pos:R:3:molID:I:1:forces:R:3 Nmols=3 Comp=VC(3) energy=-1601.690673828125 pbc="F F F"
C        0.45285612       3.01426506      -2.32330513        0       3.69582748      -1.20923543      -0.28637451
C       -0.65326887       3.32036090      -1.70732403        0      -1.72693658       0.67772084      -0.07432425
O       -0.82637185       2.63587189      -0.55307001        0       1.27442873      -1.01872432      -0.20744908
C        0.26635113       1.80842292      -0.42423803        0       1.21702611       0.89082116      -0.75935572
O        0.50404215       1.07012391       0.47730500        0      -1.03267038       1.58734941      -2.09044552
O        1.20395112       2.09938192      -1.54059100        0      -3.82801390       0.58737934       1.08040655
H        0.99488211       3.42258286      -3.19497991        0      -0.59755826      -0.39895687       0.69687426
H       -1.42996383       3.95062685      -2.12583590        0       0.00374037      -0.17695114       0.50704938
C        1.26803315       0.08491497       2.52308202        1       0.36631858      -1.12734318       2.42550969
C        0.71784115      -0.92897701       3.20788789        1      -5.18581533      -0.07442403       2.34149647
O        0.64552510      -2.02956414       2.40690088        1       1.04891908      -0.58073807       0.28503227
C        1.62233818      -1.82807600       1.46278298        1      -0.38882741      -2.15193653      -1.23177552
O        2.07954812      -2.65240097       0.69964898        1      -0.95148069       1.77961755       1.72274041
O        1.90033615      -0.53814703       1.52785194        1       3.08565283       0.77581584      -2.14912868
H        1.60973608       0.97362196       3.01618791        1       0.01727867       0.25508240      -0.54111713
H       -0.23638988      -0.89091206       3.98334789        1       2.88525629       0.04087842      -1.79517484
C       -2.61711597      -1.50253499       0.01472599        2       0.28062934       2.25725794      -1.35532343
C       -1.65134692      -2.33284712      -0.23200200        2       2.50433016      -1.29943538      -0.71526039
O       -0.75461686      -1.64041007      -1.12287402        2       0.29377794      -2.32974291       1.06718504
C       -1.23930693      -0.42871904      -1.39447701        2       0.39000598      -0.21422398      -1.28469110
O       -0.76134789       0.30777997      -2.22421694        2      -0.91190350      -0.58641434       1.71972942
O       -2.37302589      -0.32890302      -0.69123900        2      -1.22598863       1.03239787       0.36438856
H       -3.27383399      -1.43262005       0.79540098        2      -1.62482393       0.16235757       1.40422106
H       -1.51131582      -3.31143308       0.29795000        2       0.41082719       1.12144780      -1.12421238
22
Properties=species:S:1:pos:R:3:molID:I:1:forces:R:3 Nmols=2 Comp=DMC(1):EC(1) energy=-1151.8294677734375 pbc="F F F"
C        2.69088602       2.54591513      -2.12696218        0      -1.40048122       4.50415421       1.51066589
O        2.34068704       3.64524508      -1.67616713        0       0.59263444      -2.19078398      -0.75336403
O        1.94911408       1.49887204      -2.25967312        0       0.15307522      -1.34275150      -0.33094391
O        3.84929514       2.26471615      -2.58353305        0       2.31401348      -0.98418570      -0.52217042
C        0.58085805       1.60748911      -2.26327205        0      -1.62131035      -0.28723180      -1.08677816
C        4.93368006       3.14626217      -2.62285423        0       2.46366620      -0.82589149      -1.07494354
H        0.20010208       1.35155511      -1.32161117        0      -0.48484600      -0.41516191       1.71316409
H        0.13602108       2.57295012      -2.51098919        0       0.47182018       0.16444969      -0.32789803
H        0.19209708       0.83466810      -2.94893003        0       0.25811315       0.41477668       0.00186539
H        5.82548094       2.54683304      -3.02168822        0      -1.11103392       0.03647697       0.67582381
H        4.87149000       3.85138416      -3.42286325        0      -0.80282831       0.92739844      -0.23775876
H        5.33360624       3.57181811      -1.71259320        0      -0.83282316      -0.00124949       0.43233740
C       -3.41220593      -1.40147686       1.27721584        1       3.63059831      -2.78902674       1.11423421
O       -2.92165089      -1.47329795       2.67879891        1      -1.29903936       1.32690907      -1.90127945
C       -2.61571789      -2.75121093       2.98010492        1       1.59624708       1.88840652       2.24404860
O       -3.01706386      -3.61698890       2.14714384        1      -0.69691151      -0.26617265      -3.79036427
C       -2.94653201      -2.85366082       0.89804888        1      -0.89615923      -0.95190561      -0.86852086
H       -4.42421579      -1.24309289       1.20551991        1      -2.04118705       0.49036849       0.18094864
H       -2.80409384      -0.83304894       0.58278483        1      -0.08426237       1.00758123       0.61369646
O       -1.86870396      -2.94726801       3.88132596        1       0.14261293      -0.55111551       1.06081772
H       -3.50762296      -3.30938387       0.07090886        1      -0.53438008      -0.19254714       0.67818904
H       -1.93009996      -2.85789800       0.47551787        1       0.18248093       0.03750283       0.66823035
25
Properties=species:S:1:pos:R:3:molID:I:1:forces:R:3 Nmols=2 Comp=DMC(1):PC(1) energy=-1237.212890625 pbc="F F F"
C        2.67575073       2.86108518      -2.86082530        0      -1.18067384      -1.90045953       2.02332282
O        2.76785755       3.16294599      -1.37367737        0       2.83860183       3.33674955      -4.20662355
C        2.53783751       2.18929100      -0.59767431        0      -0.70715654       2.33021188       5.53533649
O        1.93164957       1.26053202      -1.20610726        0      -1.45455670      -3.47935820      -2.54851961
C        1.75701964       1.53768110      -2.68214726        0       1.59494615       0.76514006       1.83800936
C        1.82226360       3.92414308      -3.45830131        0      -0.50456119       0.29420269      -1.23759890
H        3.62236261       2.79383111      -3.48461127        0      -0.37618864      -0.47764629       1.46003389
O        2.62325168       2.39863515       0.62851471        0       0.14093405      -1.72902870      -2.88733435
H        0.69594961       1.78663802      -2.79194736        0       0.34214365      -0.31747583      -0.29865080
H        2.12722850       0.64140809      -3.18146920        0      -0.25875562       0.35848522      -0.16221005
H        0.94558364       4.07772589      -2.83702040        0       0.09519166       0.70326370       0.28718007
H        2.44793057       4.83902597      -3.65341330        0      -1.05310357      -0.76017803       0.09403941
H        1.39495564       3.45968413      -4.37784052        0       0.52317953       0.87609333       0.10301542
C       -2.77969742      -2.77740502       1.95494866        1       1.51680994       0.18760315      -1.79731715
O       -3.66863132      -2.42830992       2.60583663        1      -2.76262283       1.31882095       1.37645674
O       -2.29131937      -2.42984796       0.79584169        1      -0.98255110       3.11450052      -3.41372252
O       -1.89286339      -3.66918087       2.21758556        1       1.78414321      -2.90965104       1.60987067
C       -2.91089439      -1.28356600       0.07705668        1       1.86435854      -1.10488582      -0.80856562
C       -2.05939937      -4.26767588       3.43624568        1       0.87373334      -3.62801981       0.99846649
H       -3.72709346      -1.70948493      -0.53036433        1       0.46336654       0.54435778       0.24065620
H       -3.16581345      -0.57542592       0.80696666        1      -0.95912963       0.94037592       0.90853763
H       -2.09199142      -0.74095094      -0.52423334        1      -1.14962029      -1.28189564       0.49349499
H       -1.32394242      -5.09556913       3.62502956        1      -0.16681570       0.60867965      -0.94618964
H       -1.93663037      -3.67549205       4.25493479        1       0.79215848       2.69328403       2.18515682
H       -2.99357438      -4.73741913       3.66374469        1      -1.27383053      -0.48317024      -0.84684384
27
Properties=species:S:1:pos:R:3:molID:I:1:forces:R:3 Nmols=2 Comp=DMC(1):EMC(1) energy=-1265.3275146484375 pbc="F F F"
C       -2.03106403       0.65746909       0.26760513        0       0.87006617      -0.35091880      -0.14847767
O       -1.07807493       0.48504212       1.01702011        0      -2.01374817       0.77221382      -2.05282021
O       -3.26775193       0.23020512       0.42069915        0      -0.48935837      -0.27243483      -0.46225214
O       -2.21094799       1.20861411      -0.95951784        0       2.66345549       0.04972857      -0.46800071
C       -3.54576588      -0.43989488       1.59327912        0      -0.47279656       0.90363443       2.13683200
C       -0.96694797       1.71850216      -1.62740982        0      -2.61011600      -0.96958095      -0.26588947
C       -5.02091789      -0.62569290       1.77413309        0      -2.65898466      -3.47377443      -1.04403150
H       -3.05448604      -1.41090190       1.60176313        0       0.37807930       0.00799698       0.29520649
H       -3.22410202       0.31734413       2.37260509        0       0.08568513      -1.27072763       0.07711083
H       -0.72410798       2.40959311      -0.88021588        0       1.34118879       1.55036747       0.17635259
H       -0.25252098       0.92709315      -1.77050185        0       0.24094811      -0.27804154       0.11379822
H       -5.35431385      -1.19761384       2.70942616        0       1.01516092       0.84114331      -1.10925293
H       -5.65353584       0.21069811       1.69021618        0      -0.03521326       1.54262638       0.24245526
H       -5.48677492      -1.27245092       0.88484311        0       1.36394238       0.87557733       1.55558181
H       -1.31561697       2.06881022      -2.61999083        0       0.31005675       0.06567872       0.94230855
C        2.86216998      -0.54789591      -0.30648586        1      -0.98164427       2.72423983       0.02590925
O        2.04342008       0.15615812       0.27660215        1       0.90208876      -2.21178293       0.53519952
O        3.26260614      -0.10306588      -1.49444783        1       0.72195518      -1.09404802      -0.45813709
O        3.59369302      -1.61061084      -0.04163986        1       0.21853739       0.39270294       0.10427594
C        2.62956214       0.98352611      -2.09231687        1      -0.36756736       0.99965906      -0.12859452
C        3.55574894      -2.15067077       1.29780114        1      -1.43603933       0.83935237      -1.43342566
H        1.88944602       0.64559013      -2.80296278        1      -0.23328504      -0.30032641      -0.29498366
H        2.08495712       1.70345008      -1.42564690        1       0.86171055      -0.61440802      -0.18526721
H        3.46013594       1.43517017      -2.62836289        1      -0.23748994       0.50816059      -0.05741288
H        4.11010695      -3.05958986       1.20176017        1       0.89508951       0.04184407       0.61892402
H        3.79936910      -1.30624783       1.98418510        1       0.03068402      -1.20531619      -0.10238832
H        2.50926495      -2.46688581       1.28762710        1      -0.36240667      -0.07356536       1.38697982
40
Properties=species:S:1:pos:R:3:molID:I:1:forces:R:3 Nmols=4 Comp=EC(4) energy=-2247.93701171875 pbc="F F F"
C       -0.45859733       3.28287387      -3.49498057        0      -0.82272553       2.01618195      -2.46160078
O        0.88948870       3.79171300      -3.25429845        0      -2.68998528      -0.50437689       0.93422747
C        1.77967572       2.90106797      -3.77192235        0       0.76455784       3.82615018      -0.22100404
O        1.17627263       1.93414199      -4.35922432        0      -0.11654854      -1.98126841      -0.57539129
C       -0.21532533       1.93098700      -4.04651356        0      -0.21340144      -3.24690485       0.14495838
H       -1.27154136       3.41099501      -2.76392436        0       1.14561915      -0.05772339       0.43938541
H       -0.92158234       3.83359003      -4.43693542        0       1.01164603      -0.09626615       1.49873114
O        2.90443778       3.31073308      -3.80425644        0       0.07524920      -1.74943721      -0.22347891
H       -0.37066332       1.10437799      -3.21093941        0       0.03049132       1.16517591      -1.62974203
H       -0.76461333       1.62513399      -5.02565050        0       0.64285165       0.53199261       1.72506595
C       -3.80103922      -2.50376415       2.43770266        1      -0.88202184       0.49978471      -2.97944641
O       -3.38939834      -3.25377202       1.26028454        1       0.65692425      -0.71064734       0.64713311
C       -2.30445933      -3.99550915       1.61562252        1       3.03264022      -0.56894082      -2.59067392
O       -2.14457035      -4.05070019       2.94205546        1      -0.69456482       0.51201105      -0.38911197
C       -2.87330842      -2.91826797       3.46709847        1       1.37900901      -1.67377651       3.05856466
H       -3.50343823      -1.48718607       2.20085359        1      -0.73838353       0.60364926      -0.14214855
H       -4.90017223      -2.60740995       2.47806549        1       0.61376458       0.03717312       0.46613589
O       -1.42242634      -4.39646721       0.83060056        1      -3.38591981       1.00850785       2.31610513
H       -2.05277324      -2.11510110       3.58914661        1      -1.20110273      -0.97873163       0.77582711
H       -3.41370034      -3.34911704       4.41145039        1       1.25469446       1.25529766      -1.17405128
C        2.30157065       3.02082801      -0.87318546        2       1.44923425       0.57913685       0.09092450
O        1.55322373       4.09202099      -0.41163146        2      -0.87389714       0.36078477      -0.86050022
C        0.22185968       3.76526093      -0.52127045        2      -1.39066410       3.02326727       2.60016847
O        0.00528267       2.46501303      -0.45626047        2       3.05255103      -0.23684520      -2.04238415
C        1.41516268       1.88063395      -0.86391044        2      -3.85592294      -3.30336499       0.39719722
H        2.83828473       3.31009007      -1.79112947        2      -0.54035121      -0.24006945       0.27557558
H        3.08249879       2.85036993      -0.17078246        2       0.90524930      -0.11007398       0.77340806
O       -0.57856935       4.68077612      -0.37167346        2       1.09530091      -2.44384694      -0.90911889
H        1.33951473       1.28182793      -1.79590452        2      -0.22596544       1.10970116      -0.07774603
H        1.47189569       0.99151593      -0.16966246        2       0.55854052       1.35118711       0.12249696
C        0.88761669      -2.09321308       0.81132352        3      -3.71147442      -0.21000719      -1.45069933
O        0.03761967      -1.97608399       2.01637745        3      -0.00371885       2.35823107      -0.91606331
C        0.60278767      -2.53470492       3.05735755        3       0.41343495      -2.19783235       0.62300038
O        1.52326167      -3.40426898       2.49319744        3       0.08004409      -1.07095909       1.91140282
C        1.51099765      -3.45389700       1.07032657        3       0.28242633       2.97766566       1.93686235
H        0.08297767      -2.01841211      -0.05692146        3       1.48990679      -0.46295053       1.48918378
H        1.59659469      -1.32058406       0.56207752        3       0.14083084       0.42568153       0.76185727
O        0.34869966      -2.52002215       4.24030066        3       0.42494035       0.51512289      -2.53558207
H        1.02420068      -4.25862026       0.65650052        3      -0.94358492      -1.79934406      -0.61258602
H        2.53591371      -3.38821101       0.90628552        3       1.79032540      -0.51333511      -1.19688404
30
Properties=species:S:1:pos:R:3:molID:I:1:forces:R:3 Nmols=3 Comp=EC(3) energy=-1687.232177734375 pbc="F F F"
C       -4.12463999      -1.38331330      -2.42669320        0      -0.07115436      -0.09367287       0.92098075
O       -4.85671186      -0.58527428      -3.29135799        0      -0.85758561       1.13219905      -0.65215075
C       -4.90107059      -1.11834621      -4.56758595        0      -0.99929047       0.63840145       1.10239649
O       -4.02001286      -2.08291125      -4.62866592        0       1.32141519      -0.83635068      -0.41547441
C       -3.24393392      -2.16244316      -3.42454815        0      -2.88130927      -0.91172910       0.99767900
H       -3.52626491      -0.84614927      -1.66835916        0      -0.07266866       0.36674351      -0.70721459
H       -4.85408068      -1.92120123      -1.77655911        0       0.35699987      -0.33770010      -0.66284639
O       -5.69529676      -0.78748024      -5.39322805        0       0.86987650      -0.20781064       0.50076270
H       -2.31512570      -1.72622728      -3.47138715        0       2.11806774       0.87237370      -0.68539333
H       -3.18651271      -3.17717123      -3.06380701        0       0.19033822      -0.60366547      -0.43489930
C        0.30978417      -0.65456825      -0.57457012        1       2.49353838      -0.87256879       0.86959058
O       -0.88102782      -1.13273120      -0.17320210        1      -2.64668965      -0.43704548       1.34364796
C       -1.14308679      -2.33998322      -0.65088713        1       1.45484471       0.68877548      -2.22729564
O       -0.15073483      -2.73469424      -1.49947405        1       2.05546474       0.64120817       0.84065592
C        0.98336518      -1.88646221      -1.22591114        1       0.64455342       0.73007607      -1.02479839
H        0.22791818       0.14389074      -1.23837507        1      -0.23141515       1.56884909      -0.99601752
H        0.85364717      -0.37587824       0.35009891        1       0.00924681       0.33499998      -0.44995975
O       -2.14108491      -2.93444228      -0.60166711        1      -2.01372671      -1.04352963       0.97206783
H        1.68404114      -1.63605428      -2.08693218        1      -1.56791353      -0.45294893       0.24863470
H        1.70171022      -2.23403931      -0.50286508        1      -0.17259292      -1.17660511       0.45963448
C        3.67231321       2.92746186       3.89800692        2      -0.46510452      -1.19862127       1.92695272
O        4.82196808       2.26200986       4.53771782        2      -2.75533128      -2.18290234      -0.72160441
C        5.47337103       3.08063078       5.26452112        2       3.22569871       2.07042027       0.90787148
O        5.27526140       4.36545181       4.83315992        2      -0.57684672      -0.47700977      -0.02581358
C        4.28790140       4.29067278       3.83464384        2      -0.91391802       2.04028654      -0.60819113
H        3.43658614       2.38041568       2.99494600        2       0.40342399       0.23834080      -0.32098711
H        2.68566012       2.82074285       4.53663397        2       1.89491856       0.33788466      -0.59229255
O        6.34440804       2.87332678       6.06447983        2      -1.14253688      -0.46714389      -0.31553733
H        4.68179321       4.43559790       2.83605695        2       0.60051882       0.10373637      -0.33114538
H        3.64824009       5.17260456       3.99479294        2      -0.27082253      -0.46499151       0.08074743
28
Properties=species:S:1:pos:R:3:molID:I:1:forces:R:3 Nmols=2 Comp=EMC(1):PC(1) energy=-1323.5224609375 pbc="F F F"
C        1.72377765       3.32298040       1.23377502        0      -2.68312359      -2.42272234       1.34706938
O        2.63007474       3.96519041       1.53447902        0       3.86250305       1.80970693       1.03530347
O        1.29991972       2.14615750       1.84063101        0       0.07332242       1.14027178      -0.59655440
O        0.77926767       3.66562247       0.43865305        0      -2.37517214      -0.71627998      -1.63461900
C        1.90697467       1.75645757       3.04736710        0       0.48493803      -2.55411386      -0.43300843
C        0.88982570       4.74090958      -0.45231396        0       0.43830055       1.65860248       0.52760470
C        1.15173769       0.57867450       3.70658803        0      -1.10378540      -0.00462043       1.00323713
H        2.79456258       1.18240547       2.76503110        0       0.72270691       0.54103023      -0.34383711
H        2.20889378       2.54168057       3.70765495        0      -0.32992581       0.73949307       0.36039543
H        0.10335267       4.74462366      -1.20242596        0      -0.38703376      -0.19665304       0.41663235
H        0.86104167       5.71037769       0.15870804        0       0.04837602      -1.05827391      -0.90807045
H        1.82548165       0.10581652       4.46028614        0      -0.48793715       0.35487762      -0.60909289
H        0.22868967       0.92526150       4.24658728        0       0.80653214      -0.16175762      -0.53034288
H        0.82980067      -0.20090248       2.97496009        0       0.37929857       0.73838615       0.36891365
H        1.80501771       4.65960073      -1.02614200        0       0.55100048       0.13205320      -0.00362982
C       -1.31142235      -4.00997543      -1.90670896        1      -0.35413563      -2.02343154      -0.92588007
O       -1.36890638      -2.83475542      -2.73198986        1      -1.83353233      -1.33947909       4.22382975
C       -1.54313231      -1.91736245      -1.71109498        1       4.09572029      -0.47435927      -1.01330817
O       -1.16352928      -2.32432938      -0.44027796        1      -2.51822042      -1.98110127      -0.52238274
C       -1.41685629      -3.77515841      -0.40252295        1       0.68267685       1.25047123       0.12943017
C       -2.38931227      -5.01158953      -2.23772907        1       0.03290594      -0.97377026      -1.10435379
H       -0.30356833      -4.38847160      -2.05719805        1       0.27565253      -0.50728661      -0.63580066
O       -1.39821637      -0.80781245      -2.05047894        1      -1.23959327       2.99773788       0.17590761
H       -2.34512043      -4.16522455       0.13714604        1       0.83855039       1.34075761      -0.81333959
H       -0.57648534      -4.34543562       0.01129304        1      -0.02064139       0.67167652       0.54378927
H       -3.37616634      -4.65697241      -2.00140500        1      -0.24413055       0.43136781       0.13887227
H       -2.36349630      -5.22382641      -3.30567098        1      -0.03765080      -0.01968253      -0.07165527
H       -2.28031039      -5.97883224      -1.71653998        1       0.32239863       0.62709999      -0.12510800
46
Properties=species:S:1:pos:R:3:molID:I:1:forces:R:3 Nmols=3 Comp=DEC(2):EC(1) energy=-2083.9404296875 pbc="F F F"
C        1.12228513       2.57065392       3.05553150        0      -1.14609587      -2.45400572      -2.39035130
O        0.89510715       3.33680701       3.90915251        0       0.02381811       2.03838158       1.95898056
O        0.83131516       1.22789502       3.08354163        0       1.16398203       2.29097176       4.84576035
O        1.47916710       2.80396104       1.84003460        0       0.76837027      -0.21216416      -1.84646726
C        0.86742717       0.93730795       4.75010538        0      -0.94480222      -1.35196221      -3.51422572
C        1.98150611       4.01263905       1.23323762        0       0.12105924       0.48184466       2.99563003
C        0.80585617      -0.58874100       4.48594856        0       0.36756760       0.83381629       1.59613335
H        1.87435615       1.08331895       5.15053034        0      -0.38196856       1.08407891      -0.08965519
H       -0.02357686       1.61593997       5.10627460        0       1.74744678      -1.75114441      -0.29932988
C        0.86050314       4.98110104       1.04421353        0       0.27499866       1.50031567       0.32276413
H        2.59138203       4.60207987       2.06282258        0       0.08146578      -1.56522894      -1.55697620
H        2.49448419       3.56533098       0.39430356        0       0.18521880       0.81922925      -0.09808052
H        1.30257308       5.96039391       0.89348656        0       0.33726114       0.22220123       0.37379411
H        0.26657715       4.89897490       0.20957758        0      -1.24794960      -1.08024621      -2.08442926
H        0.17814614       5.04733515       1.87895453        0       0.13844270      -0.23986724       0.45482326
H        1.16012108      -1.13257897       5.37814569        0      -0.84339345       0.11919641      -0.12146223
H       -0.23201686      -0.73150504       4.21799374        0       0.22771060      -0.89830083      -0.24792181
H        1.59177709      -0.83813405       3.75746059        0      -0.87313235       0.16288327      -0.29898763
C       -3.41360188      -0.98489702      -1.42369044        1       0.01932299      -2.68406057       1.09818840
O       -4.55164003      -0.98675704      -1.68807948        1      -2.83633471      -0.66052341      -2.41940117
O       -2.50612378      -1.95843303      -1.43353546        1      -0.66198552      -1.12363791      -1.04629421
O       -2.91195083      -0.18129502      -0.62358844        1       3.32248044       3.16704607       2.58339953
C       -2.94922781      -3.16452909      -2.04602051        1      -1.53553176       0.83343053      -1.65059471
C       -3.65715981       0.89645898      -0.14776742        1       1.38613391      -0.34439754       3.63150620
C       -1.73851287      -4.02535009      -1.99297738        1       0.10297441      -2.60024166      -0.23222302
H       -3.87312388      -3.66752005      -1.60215044        1       1.16554606       0.78793085       0.16770756
H       -3.32941294      -2.82905102      -3.10723448        1       0.93028164      -0.88911432       1.20537603
C       -2.66523385       1.63324594       0.88361657        1      -2.84206724       0.60618889      -0.07768905
H       -3.91746187       1.44909501      -0.97636640        1      -0.81393754       1.85011530      -1.40462446
H       -4.52412081       0.52065700       0.48019758        1       0.61813325       0.43585378      -0.72476184
H       -3.43014789       2.24482489       1.47997653        1       1.54833722      -0.68033475      -0.47342408
H       -2.09312892       0.97019100       1.50268054        1      -0.39674523      -0.76860034       0.38310242
H       -1.89375591       2.26521993       0.49221757        1      -0.15914655       0.53508955      -0.89026213
H       -2.09110880      -5.09659481      -2.20086837        1       0.76471609       1.36803436      -0.36298341
H       -0.93603188      -3.68115592      -2.69023538        1      -0.72984588      -0.47452575       0.61392558
H       -1.35541391      -4.14123487      -0.96314341        1       0.05384740       0.62225580      -0.38760900
C        2.30126524      -3.24978709      -3.27970552        2      -0.67628682       3.55279636       1.53286076
O        3.00183821      -1.84303808      -3.55832553        2      -0.26474798      -3.20414615      -0.45209169
C        2.96121526      -1.04488206      -2.52093434        2      -2.70555186      -2.16347384       0.28921658
O        2.09142613      -1.54451299      -1.57714641        2       0.53953725      -1.23120952       0.17608917
C        1.89760613      -2.98708797      -1.72157145        2       2.35022736       0.61619508      -0.60401928
H        1.30514014      -3.13057709      -3.81170249        2       1.44893396      -0.73683375      -0.04771209
H        3.03420115      -4.06249380      -3.52643442        2      -0.95031881       0.86005801       0.21950884
O        3.41751218       0.01574698      -2.43227243        2       1.44709706       2.19611168       0.13606699
H        0.90290713      -3.12530494      -1.34257340        2      -0.39508367      -0.46129283      -0.48426604
H        2.63837409      -3.52872992      -1.04472041        2      -0.72998625       0.59128582      -0.77899164
31
Properties=species:S:1:pos:R:3:molID:I:1:forces:R:3 Nmols=2 Comp=DEC(1):PC(1) energy=-1410.778564453125 pbc="F F F"
C       -2.17536664      -0.12906668      -1.11784172        0       0.42780352       0.64014566      -1.02665353
O       -1.34424663      -0.81957370      -0.64080775        0       0.97386765      -1.17144156       0.98088855
O       -3.24678564       0.35303932      -0.51759273        0      -0.43287501       0.29714483       0.69285345
O       -2.10225153       0.32426533      -2.37789369        0      -2.09559584       1.12212324       0.55114388
C       -3.46582150       0.10677933       0.88375926        0      -0.58072567      -0.73183846       0.29798055