23
Properties=species:S:1:pos:R:3:molID:I:1:forces:R:3 Nmols=2 Comp=EMC(1):VC(1) energy=-1208.916015625 pbc="F F F"
C        1.40669906      -0.94852668       1.34895813        0       2.17680693      -1.36631227       1.36850584
O        2.40962720      -1.28579569       1.94060218        0      -0.99794436      -0.03801596       0.75659573
O        0.12933208      -1.04362166       1.73212218        0       0.74547535       0.08129221      -1.07301044
O        1.47688103      -0.50123066       0.16977718        0      -1.60839200       1.74737597      -3.97721386
C       -0.04094892      -1.35957861       3.04710722        0      -2.20984817      -3.72964883       2.08326030
C        2.63086009      -0.44012067      -0.69729584        0       0.20560634      -0.30476439       1.22907794
C       -1.63370895      -1.50622070       3.27897310        0       1.47392988       3.05791616      -5.80820751
H        0.40394607      -2.40141869       3.38785219        0      -0.58540952       1.37724209      -1.08972311
H        0.45089409      -0.68009967       3.66465807        0       0.34579119       1.58280420       1.28298461
H        3.36547112       0.15588234      -0.10162982        0      -0.06265840      -0.48012391      -0.93634480
H        2.91504097      -1.48023367      -0.91267079        0       0.34394991       0.23539996       0.26169768
H       -1.94975197      -1.75659466       4.21205616        0      -0.57485688      -1.29433000       1.83835995
H       -2.05149293      -0.44585866       3.06940317        0       0.52677476      -1.27081466       0.63304424
H       -1.99269390      -2.01510978       2.26033020        0       0.42530498       0.20481044       2.72010159
H        2.40328908      -0.00330166      -1.68040287        0      -0.23521772       0.22335574       0.69388884
C       -1.72449291       1.32071137      -0.47724482        1      -2.76380873      -2.35593891       1.26315999
O       -0.49731091       1.17084932      -0.94350183        1       2.34057641       1.07537460       0.93183672
C       -0.59555292       1.32678330      -2.25614190        1       4.37558937      -0.92699218      -4.11859131
O       -1.80939388       1.20327735      -2.66971779        1      -2.95482421      -0.72381771       0.80992055
C       -2.54717183       0.93277031      -1.49749577        1      -2.01173210       2.87298346      -1.40703654
O        0.29996908       1.35905635      -3.09270382        1      -0.86153209       0.43426725       2.28696489
H       -3.61379600       1.21128833      -1.72711182        1       1.37043929      -0.94434953       0.84087569
H       -1.99838686       1.11892533       0.56570417        1       0.53598052       0.54228735      -0.59014612
23
Properties=species:S:1:pos:R:3:molID:I:1:forces:R:3 Nmols=2 Comp=EMC(1):VC(1) energy=-1208.3736572265625 pbc="F F F"
C       -0.69763237       2.77908134       1.23040593        0      -3.33983135       3.25656939      -0.51437938
O        0.41091162       2.90825939       0.90179396        0       3.08837724      -1.68003798      -0.23518622
O       -1.54747343       1.82928336       1.18552589        0      -0.97552156      -0.05601549       0.85818207
O       -1.47622144       3.99724841       1.42502689        0       1.31342292      -1.99437118      -0.11646748
C       -1.05164540       0.55792034       1.01647294        0       2.84649754      -1.20566273       0.17961653
C       -0.58076239       5.05312920       1.23254991        0      -0.44112569       0.61796248       1.63696218
C       -2.08044529      -0.48666269       1.21495795        0      -0.27960354      -1.36324966       1.59064269
H       -0.58454442       0.48634732       0.04012394        0      -0.10479935      -0.02880451      -0.86334836
H       -0.13467740       0.35334331       1.69473493        0      -1.21555865       0.45336035      -0.18962663
H       -0.06260440       5.23490810       2.17521095        0       0.18050805       0.18933651       0.19202256
H        0.14888860       4.83289528       0.50576496        0       0.51339400      -0.16182631      -0.85861987
H       -1.73312235      -1.46158373       0.79107195        0       0.20484817       0.48494124       1.20645380
H       -2.35824633      -0.45531067       2.34884787        0       0.31686944      -0.69178599      -2.09641027
H       -2.94100738      -0.36219668       0.61415994        0      -1.25788236       0.81078678      -0.26997814
H       -1.12611735       5.90846729       0.99187595        0      -0.84959459       1.36879683      -0.51986384
C       -0.08214340      -3.62099671      -1.75664902        1       3.66197753      -1.53771925       0.06763542
O        0.70271158      -2.58156061      -2.27889895        1      -4.29139042      -0.74036002       0.26259494
C        1.51702058      -2.24412274      -1.30315304        1       2.70750904      -2.79351401      -1.71930897
O        1.84426665      -3.32881665      -0.58488607        1      -3.36568117      -2.92003489      -0.10317457
C        0.80931163      -4.41899586      -1.06022000        1       0.38207155       3.08999467       1.99134660
O        2.26134372      -1.36615074      -1.48889709        1       1.48001170       3.39230871       1.02537739
H        0.68980759      -5.35269451      -0.45185906        1       0.42260867       1.35574019      -0.95476443
H       -0.94944340      -3.98191357      -2.21206117        1      -0.99710739       0.15358491      -0.56970608
22
Properties=species:S:1:pos:R:3:molID:I:1:forces:R:3 Nmols=2 Comp=DMC(1):EC(1) energy=-1152.6312255859375 pbc="F F F"
C        3.61284208      -2.07550406       0.22518750        0      -1.87561131      -1.24639249      -1.44592154
C        3.75244713      -3.59650588       0.06730349        0       0.68389225       0.18644786      -1.45387638
O        3.49376106      -3.82976699      -1.34206152        0       0.43535882       0.18157029       1.24033022
C        3.66125512      -2.66054893      -1.99677956        0      -1.73640263      -0.89338714      -1.83287787
O        3.62495208      -2.64322686      -3.21021342        0       0.58111411       0.68642306       2.30617189
O        3.58672094      -1.63819695      -1.13761151        0       1.03649211       0.56023979      -0.11178112
H        2.69311810      -1.68178594       0.65247649        0      -0.24633825      -0.28694957       0.14247270
H        4.39196014      -1.77501500       0.83347249        0       1.76544607       1.22026420       0.64673692
H        4.79914284      -3.87108588       0.18849850        0       0.34356529      -0.02922952       0.23929861
H        3.20638895      -4.23945999       0.70763350        0      -0.98751664      -0.37898654       0.26944613
C       -3.46759295       0.39978606       1.80026948        1       1.56415296       0.04091442       0.21026647
O       -2.97357607       1.54546702       1.06417453        1      -1.43916869       0.67208242       0.17694068
C       -3.68755794       2.70816302       1.22221446        1       0.41779554      -0.88944954       0.38813233
O       -4.68780279       2.74251199       1.89068353        1       0.56236315       0.63319606      -0.68800056
O       -3.02453804       3.67995095       0.56466550        1      -0.12637329      -1.56283069       0.11015868
C       -3.40832901       5.01135302       0.69437551        1      -0.48646617       1.36152077       0.03324683
H       -2.75606489      -0.34492496       1.41046655        1      -0.46631050      -0.10460316       0.29531044
H       -3.22423792       0.57276303       2.88537145        1      -0.57765520      -0.20791930      -0.80167156
H       -4.49957609       0.04107006       1.62627149        1       0.52671885       0.75290334      -0.05854985
H       -3.64559507       5.22525692       1.76454043        1      -0.23737250       0.04160865      -0.65436161
H       -2.52239585       5.64242887       0.43704748        1      -0.67540234      -0.53526276      -0.02872124
H       -4.26611900       5.24361420      -0.02387951        1       0.93771809      -0.20216000       1.01724935
10
Properties=species:S:1:pos:R:3:molID:I:1:forces:R:3 Nmols=1 Comp=EC(1) energy=-562.1288452148438 pbc="F F F"
C        0.04702185       0.83415061      -1.35688162        0      -0.02539706       0.31380856      -1.63220644
O       -0.50411916       0.92041564      -0.09821067        0      -1.78302908       1.23096228       0.41892028
C       -0.22546014      -0.08585037       0.71164131        0      -0.06875113       0.69855976       2.82717371
O        0.56264788      -0.94790435       0.08703933        0       0.43583870      -1.17608118       0.53208613
C        0.66519684      -0.67460239      -1.26913261        0      -1.70402801       1.82132363      -1.26378012
H       -0.69738817       1.32375765      -2.22990465        0       1.37189853      -1.94621873       2.00226188
H        0.84714788       1.58321857      -1.37349868        0       0.34099036      -0.37132969      -0.18415454
O       -0.53938913      -0.08326737       1.89579630        0       0.69785166      -0.51375389      -2.98143911
H        0.02858885      -1.36701536      -1.84039462        0       0.18515989       0.15298063       0.09713313
H        1.65750480      -0.65968937      -1.67245662        0       0.54946578      -0.21025081       0.18400493
34
Properties=species:S:1:pos:R:3:molID:I:1:forces:R:3 Nmols=3 Comp=DEC(1):VC(2) energy=-1828.510986328125 pbc="F F F"
C       -0.09173039      -1.03795123       1.13215828        0       0.28691727       2.16232800       0.18072964
O        0.66122359       0.21716379       1.06796718        0      -1.62704253      -2.72144437       0.02142036
C        2.00051570      -0.15963122       1.04819417        0      -5.61650848      -1.88965297       0.10656443
O        2.12524271      -1.43898916       1.02832723        0      -1.42282629      -2.42307854      -0.27989218
C        0.82325763      -1.99034119       1.03538823        0       1.45312083      -3.20413280       0.17400040
O        2.79736471       0.62670475       1.13556421        0       5.80941772       4.99985886       0.28841314
H        0.89998060      -3.19638634       1.03570819        0      -0.69740856       3.22782421      -0.02365158
H       -1.19878638      -0.96512020       1.35657227        0       1.80585909      -0.15164107      -0.46327299
C       -0.41216639       2.13632989      -4.04738474        1      -3.29447794       0.27924913       1.70083940
O       -1.54790235       1.62400174      -3.95587182        1       3.26314783       0.92174560      -0.42583951
O        0.27796960       2.39783573      -5.12207270        1       0.35266149      -0.47524369      -0.31199336
O        0.20427561       2.77221179      -3.01263165        1      -0.38479912       0.53603113      -0.62569249
C       -0.13921839       1.75725079      -6.37238789        1       0.08075857       2.32974792       0.50303674
C       -0.32927039       2.62372971      -1.66351080        1       0.75265259      -1.87138593      -0.52714705
C        1.19375861       1.73544383      -7.19138670        1      -1.98816490      -0.44602567       0.09200084
H       -0.50711936       0.80607575      -6.08773184        1      -0.04700033      -1.34117877      -0.23272806
H       -1.02609134       2.38092375      -6.65819073        1       0.88581729      -0.32652462      -0.84288126
C        0.74890864       3.15720272      -0.68642378        1       0.41127264       3.47184801      -1.49952018
H       -1.45247042       2.74032784      -1.61172080        1       1.14960515       1.05654788       0.27965409
H       -0.24573039       1.54906976      -1.64900982        1      -0.08821885      -1.00454938       1.17486560
H        0.41137761       3.41774178       0.31939122        1      -0.44490659      -0.20292452      -0.51252139
H        1.72883761       2.71294188      -0.58148378        1      -0.36188388      -1.23959148      -0.23168513
H        1.13165760       4.14930296      -1.22746277        1      -1.21098661      -1.51411128       1.16596127
H        0.91526759       1.30510473      -8.22597790        1       1.13352537       0.70505565       1.81764352
H        1.72747660       2.70354986      -7.21263790        1      -0.71361041      -0.34986329      -0.50394869
H        1.76877558       1.13842678      -6.47950077        1       0.50406551      -0.52775264      -1.02091801
C       -1.03568435      -1.24044025       5.12450600        2      -2.64027238      -3.73452950       0.29197371
O       -0.75859940      -1.73307025       3.81813025        2      -2.00952005       0.23559678       4.23847055
C       -1.41239440      -2.91287422       3.89505816        2       0.62371564      -1.78887880      -2.23866701
O       -2.24688435      -3.16512823       4.90641403        2       1.10162568       2.92170286       1.78851748
C       -1.91975343      -2.14320517       5.82747746        2       2.30165768       1.78380775      -3.89298487
O       -1.15433335      -3.77282715       3.12227416        2       0.06544077      -0.87642407      -1.16204286
H       -2.43766642      -2.04236126       6.73720312        2      -0.26122323      -0.05039361       0.48590714
H       -0.57101941      -0.39238423       5.46437836        2       0.82759023       1.50798392       0.48538834
32
Properties=species:S:1:pos:R:3:molID:I:1:forces:R:3 Nmols=4 Comp=VC(4) energy=-2136.3916015625 pbc="F F F"
C       -0.18384601       2.39934206       2.87055969        0      -0.04227626       1.24063003       1.09120512
C       -1.00316405       3.14677811       2.14002562        0      -0.99327207       0.73056984      -0.21222152
O       -1.17628205       4.41016912       2.71089673        0       1.60616517      -1.97954583      -0.85603309
C       -0.12086101       4.43738317       3.60548162        0      -1.49435842       2.95469427       1.47463691
O        0.24541499       5.47160482       4.09773779        0       0.06287968      -1.22055435      -0.53515011
O        0.23488699       3.22132993       3.93537164        0       0.84563965      -1.60969758      -0.99166346
H        0.13492399       1.39397001       2.76868176        0       0.31178683      -0.37234190       0.25878268
H       -1.47591197       2.87969899       1.22259974        0      -0.36492956       0.44869047      -0.09759550
C        0.02037599       0.48658204      -1.62798727        1       0.56032157      -0.04024678       0.48011577
C       -0.25892201       1.33652198      -0.61137629        1      -0.49760392      -0.26985121      -0.27151370
O       -0.10946101       2.66759610      -1.08563530        1      -0.37040937      -1.71379924       0.55326790
C        0.27459899       2.57405710      -2.36491919        1       0.87549269      -0.71584237      -0.29895616
O        0.59739196       3.44374299      -3.10663629        1      -0.44521245      -0.03856242       0.42735100
O        0.39864299       1.23445106      -2.70981741        1      -0.46701595      -0.11068732       0.37505233
H        0.15245000      -0.63944596      -1.63558424        1       0.21391700       3.07455635      -0.71183854
H       -0.70971900       1.02950001       0.36996269        1       0.76177520       0.80286169      -1.33723438
C       -1.53499103      -2.18794107      -0.83939826        2       3.24758458      -1.70561814      -0.72223389
C       -2.65085101      -1.52059495      -0.90405232        2       0.39473462       3.10672998       1.42196488
O       -3.64232898      -2.19272709      -1.38567626        2      -1.86597717      -1.90338039      -1.23109186
C       -3.10100198      -3.38501406      -1.74439335        2      -0.55078125      -2.07211447      -0.76025605
O       -3.65989709      -4.32537079      -2.21766233        2      -0.42317152       0.57846475       0.04180193
O       -1.79078305      -3.43165493      -1.46657932        2       0.77787870       1.79830801       1.14874816
H       -0.46613801      -1.84036899      -0.73343331        2      -2.12861872      -1.71289206       0.46362916
H       -2.85133791      -0.50869095      -0.68429327        2      -0.09718841       0.78707504       0.29264706
C        2.04542804      -1.78058195       0.30450469        3      -1.07788491       1.06586492      -0.93453318
C        2.20972991      -2.20262599      -0.92132527        3       1.10662568      -1.10519814      -2.71304464
O        3.13455200      -3.29267287      -0.90597731        3      -1.79260445       1.42318821      -1.35468340
C        3.29816103      -3.54355001       0.35827771        3       1.30880749      -0.59249914       1.27191544
O        3.92212296      -4.43347120       0.83328068        3      -0.01132143      -0.27565300       0.08781099
O        2.71428394      -2.55500293       1.09104776        3       1.29341185      -1.63943648       3.36432076
H        1.47149301      -1.03928494       0.75463468        3      -0.70299470       1.03610384       0.42981908
H        1.93026602      -1.88170993      -1.89532030        3      -0.04140081       0.03018327      -0.15501998
23
Properties=species:S:1:pos:R:3:molID:I:1:forces:R:3 Nmols=2 Comp=EMC(1):VC(1) energy=-1207.181884765625 pbc="F F F"
C       -0.55368245       2.82042670       1.12392294        0      -4.22781467       1.77909899       1.22025192
O        0.61067361       2.90822387       1.08283591        0       1.85609961      -1.59001637      -0.47128603
O       -1.56757545       1.90141177       1.18038595        0       1.95137119      -0.65532219       0.03541009
O       -1.31567645       3.95195580       1.31354690        0      -0.48538280      -0.04186749       0.05002204
C       -1.15945637       0.53953975       1.10869789        0       2.53860998      -1.16769266      -1.44949508
C       -0.60942441       5.19708776       1.24397397        0      -1.98201478      -0.17535853       0.78021061
C       -2.15627742      -0.55227125       1.12845790        0      -0.55978841      -1.63690794       2.75290108
H       -0.63897443       0.42297876       0.11855894        0      -0.27838242       0.38346374       0.27955139
H       -0.30251741       0.28352877       1.83223498        0      -1.22243154       0.82253271      -0.26016605
H       -0.11624742       5.35216379       2.20685101        0      -0.10802408       0.42894697      -0.02280903
H        0.10057957       4.94698191       0.51334596        0       1.05156350       1.05590808      -1.27487648
H       -1.82345545      -1.57423818       1.06068397        0       2.11303926      -0.35890472       0.02125001
H       -2.64350533      -0.58475226       2.09431791        0      -0.08491397       0.77594256       1.07036853
H       -2.94465542      -0.71663326       0.51023495        0      -2.26023006       1.59268904      -2.86947775
H       -1.42349541       5.98950672       1.03843296        0       1.69829929      -1.21251202       0.13814521
C       -0.31447041      -3.58338714      -1.46412504        1       3.17927623      -2.00677156      -3.83639145
O        0.55831057      -2.43077517      -2.18514109        1      -5.77060747      -2.32972765       0.86464095
C        1.54243159      -2.25624514      -1.45400703        1       5.23178482      -1.25300026       0.81590927
O        1.86569357      -3.50974727      -0.79744804        1      -2.37768054      -1.06152272      -0.53610158
C        0.73536760      -4.48398829      -1.06666505        1       0.05575657       7.57565594      -0.29490218
O        2.37544250      -1.38256919      -1.48509705        1      -1.51935077      -0.80058491       0.55177027
H        0.76844460      -5.31061125      -0.46970305        1      -0.03764173      -1.57699728       0.79075909
H       -1.12763941      -4.02895403      -2.15072918        1       1.23846364       1.45294905       1.64431560
21
Properties=species:S:1:pos:R:3:molID:I:1:forces:R:3 Nmols=2 Comp=PC(1):VC(1) energy=-1181.6756591796875 pbc="F F F"
C       -2.77607775      -0.20562433      -1.53955948        0       2.22702646       1.33622241      -3.82717800
O       -2.36679482      -0.44564033      -0.26708949        0       0.42444050       0.36783865       1.54715014
C       -3.39124370      -0.18280132       0.55434549        0      -0.53728080      -4.18631554       3.44588423
O       -4.47453070       0.09359468      -0.11637549        0      -0.82782149       2.18135452      -1.53003669
C       -4.05466175       0.61176068      -1.47582543        0      -0.43120444      -0.36097503       3.29850793
C       -1.49644876       0.57169569      -2.21235037        0      -5.01377630      -0.60647810      -0.87170756
H       -2.93682575      -1.11523938      -2.09851551        0       0.00530839      -0.67631763      -0.17186721
O       -3.44998264      -0.63177931       1.70508349        0       0.61125088       2.00122046      -2.44897199
H       -3.87626767       1.68107963      -1.29247153        0       0.05010819      -0.08899260      -0.50784272
H       -4.94257879       0.44917867      -2.05512452        0       0.21053743      -0.22748080      -0.65549874
H       -1.58334780       1.45300567      -1.67489552        0       1.01802123       1.61630023       0.99951631
H       -0.69514275      -0.06060532      -2.13386655        0       1.91500700      -0.85307467       0.20776196
H       -1.74266374       0.85064769      -3.25860858        0       0.34838301      -0.50330162       0.51428187
C        3.14170218       0.07860968       1.90398347        1      -5.29223537      -1.16788197       2.79806757
O        4.31518841       0.20511667       1.47918546        1       4.62765837       0.71534371      -1.57735062
C        4.23197222       0.08495168       0.09893551        1       7.33536959      -0.36562786      -2.43924189
O        3.03761721      -0.08545133      -0.25864148        1      -3.49943590      -0.31149653      -1.09459293
C        2.26470423      -0.09372932       0.89008349        1      -1.02702451       0.33413017      -0.27264917
O        5.23632526       0.02389467      -0.65116549        1      -3.56600094       0.50112820       2.91717505
H        1.16768730      -0.07575033       0.74390954        1       1.15052891      -0.10290038       0.32485175
H        2.90786624      -0.14447433       2.95684457        1       0.27113923       0.39730471      -0.65626001
35
Properties=species:S:1:pos:R:3:molID:I:1:forces:R:3 Nmols=3 Comp=DMC(1):EMC(1):VC(1) energy=-1799.2291259765625 pbc="F F F"
C        0.77743095      -4.03600359       0.27467319        0       1.62632835      -2.90452361       0.58181560
O        1.28903091      -5.16320753       0.95929217        0       0.21802497       0.41696072      -0.62720072
C        0.75651294      -5.16368055       2.18931627        0       0.97626650      -1.59704065       2.66518474
O       -0.16066407      -4.14499569       2.23753524        0       0.25749034      -1.03235626       0.59941757
C       -0.13006607      -3.53275061       1.02234018        0      -3.17545319       3.29343390       2.58998513
O        1.10245395      -5.90156651       3.12484407        0      -1.44405735       2.56839371      -3.23177528
H       -0.73748505      -2.59803772       1.09414721        0       0.72387654      -1.14700401      -0.61505044
H        1.16478693      -3.86064363      -0.65364784        0       0.80824542       0.38225454      -1.93458498
C        2.39473701      -0.13567971      -2.00385976        1      -3.52792764       1.34204602       0.84623045
O        2.02117705       0.93080831      -1.53105283        1       0.83080071      -1.62627411      -0.67847264
O        1.56575596      -1.17551470      -2.29425788        1      -0.38198519       0.74246740       0.37745211
O        3.56410599      -0.51147169      -2.36361885        1       0.61199880      -1.41994905      -0.85003328
C        0.08413994      -1.07812166      -2.07079673        1       2.73399210       1.55727923      -1.01217484
C        4.63801384       0.32011929      -2.19520688        1       1.02700317       2.80009604       0.50426745
H       -0.02724706      -1.10631275      -0.99866283        1      -0.54174113      -0.01306002       0.12306082
H       -0.23066705      -0.09215672      -2.55662274        1      -0.04068276      -1.39827108       0.68737668
H       -0.13875505      -1.96449971      -2.61947680        1      -0.99968696      -0.25581819      -0.03095537
H        5.52925682      -0.25668570      -2.45086575        1      -0.25758594       0.43272233      -0.02064446
H        4.53675508       1.33490324      -2.72569370        1       0.20058653      -1.51669967      -0.28447002
H        4.66562796       0.72269827      -1.16748881        1       0.34502506      -0.65201938       0.28419757
C       -2.15529704       3.67527223       0.67875421        2      -1.54883194      -0.81684268      -0.02571261
O       -2.19263101       3.17264032       1.81260824        2       0.74322814       1.63468766      -3.77027035
O       -2.98643708       4.62139940       0.16492219        2      -0.24109268       0.59571141       2.21433258
O       -1.49599302       3.30005240      -0.51957279        2      -0.40849268      -1.16883934       2.56950045
C       -4.00357485       5.33675241       1.03247321        2       0.59052992       0.50106239      -1.32494974
C       -0.48296008       2.28641725      -0.33284181        2       0.14378059       1.59438157       0.39972332
C       -4.74070215       6.38486719       0.09098719        2      -1.21270406       0.88760698       1.97418582
H       -4.58521795       4.56906319       1.51632619        2      -0.89637113      -0.45338708      -0.65290499
H       -3.61696410       5.83598614       1.95198119        2       0.71439332       0.11307272      -1.10550821
H        0.13538894       2.76807332       0.40759417        2       1.05248141      -0.01118648       0.09635124
H       -0.68323606       1.33709824       0.08318919        2      -1.35033584      -0.82980347       0.50257641
H       -5.36767626       7.06059551       0.80738819        2       0.39941871      -1.66826034      -0.98822856
H       -4.12336302       7.20362139      -0.28329381        2       0.77735674      -0.81083661      -0.36135286
H       -5.39347601       5.98927641      -0.74339181        2       0.94907129      -0.01966423       1.25262058
H       -0.01203106       2.06862926      -1.25954878        2       0.29704952       0.47966051      -0.75398779
18
Properties=species:S:1:pos:R:3:molID:I:1:forces:R:3 Nmols=1 Comp=DEC(1) energy=-760.4122924804688 pbc="F F F"
C        0.21545677       0.27857527       0.78011549        0       3.08846998       1.80086958      -0.28400940
O        1.21367276       0.73387229       1.36984849        0      -3.69526839      -0.39875114      -0.80699635
O        0.36155477      -0.84742874       0.10499748        0       1.57445467      -1.69152844      -1.89458883
O       -0.96275026       0.95702928       0.50959450        0       2.72170639       2.29133725       4.30740070
C        1.44331980      -0.93667674      -0.97146153        0       0.37006581      -1.12183189      -0.10521534
C       -1.85403621       0.46545729      -0.32444653        0      -2.08865166      -2.14873767      -3.73233604
C        2.63966966      -1.96566975      -0.47162151        0      -2.68506384       1.96632481      -0.13310653
H        0.93263578      -1.43869877      -1.92214453        0       0.88275933       1.03101575       1.93385088
H        1.84146082       0.10294128      -1.22501552        0      -0.54415965      -1.23641658       0.49500585
C       -3.10192323       1.32403529      -0.93014354        0       3.17257166       0.70706338      -2.50864983
H       -1.13933623       0.15264128      -1.19133651        0      -2.12357950       0.25956810      -0.00257808
H       -2.34241629      -0.45918372       0.11588048        0       0.33773512       0.67185420      -0.38983071
H       -2.68730831       2.20029140      -1.67216051        0      -0.62622333      -2.01620913       1.85243070
H       -3.57766914       0.60869330      -1.68711853        0      -0.03533065       1.09317851       1.76114380
H       -3.60041618       1.88782930      -0.14118752        0      -0.34718961      -0.84001553      -0.22190815
H        3.46203876      -2.13866377      -1.12403250        0      -0.24543846      -0.43074822      -1.35820305
H        3.18801069      -1.56574667       0.34892547        0      -0.31674591       0.63829541       1.13866258
H        2.03143668      -2.80301762      -0.16429052        0       0.55988789      -0.57526886      -0.05107260
44
Properties=species:S:1:pos:R:3:molID:I:1:forces:R:3 Nmols=3 Comp=DEC(2):VC(1) energy=-2057.824951171875 pbc="F F F"
C        0.30511126       0.00994164      -3.06306362        0      -0.29352280       1.74040830      -1.14656770
O        0.63089526       0.82307667      -2.22752953        0      -0.28295833      -1.20285571      -0.90618718
O       -0.00509874      -1.26174140      -2.95426345        0       0.22532123      -0.22966276       2.06597638
O        0.08915926       0.25015363      -4.38722277        0       0.02332759       1.81812561      -0.69669163
C        0.16192526      -1.78970039      -1.59430158        0       1.06662810       0.62905145      -0.16416359
C        0.30054528       1.59053469      -5.00813961        0       0.52896309       1.17959571      -0.27915850
C       -0.06891674      -3.25976038      -1.62754750        0      -1.28568995      -1.09337890       0.39193094
H        1.23337328      -1.58371139      -1.28653550        0      -0.87803483      -0.00236028      -0.25180933
H       -0.52705675      -1.30971134      -0.86590254        0       0.21241874       0.10090673      -0.65137142
C       -0.71971077       2.73079062      -4.76370478        0      -0.11225927      -1.00909042       1.36975443