77
Properties=species:S:1:pos:R:3:molID:I:1:forces:R:3 Nmols=6 Comp=DEC(1):DMC(2):EC(2):EMC(1) energy=-3736.559814453125 pbc="F F F"
C       -1.83385191       1.12909904      -5.27613973        0       0.88331610       0.62967390       5.35774469
O       -1.84544096       1.46962502      -4.08675813        0      -1.00135088      -0.07870054      -1.11769295
O       -0.81386599       1.47580007      -5.98193979        0       1.89328039       0.23338580      -2.95234871
O       -2.59086690       0.21176207      -5.77056789        0      -0.32231069      -0.19929004      -1.86497962
C        0.20941499       2.36939910      -5.45872688        0      -3.00447273       2.38767123      -0.98819637
C       -3.81860003      -0.19891795      -5.26081276        0      -2.66906309       2.63429737      -3.34446692
H        0.80830398       2.90585497      -6.22674083        0      -0.75058752      -0.56517231      -0.17993480
H       -0.43291500       3.20440104      -4.97875213        0       1.39587212      -1.04689670      -0.02787140
H        0.91850897       1.85523894      -4.91552973        0       0.89790499      -1.10085058       1.59794843
H       -4.38113103      -0.59572596      -6.14403677        0       0.61937869       0.29085878       0.18613118
H       -3.74950680      -0.95236996      -4.64341974        0       1.02972889      -3.99600077       3.46428347
H       -4.57596097       0.47631904      -4.82629776        0       1.01512647       0.83508503      -0.12560126
C        0.93029276      -1.72367896       4.76980173        1      -1.62230551       2.82710266      -0.14009851
O        1.70018986      -2.79686798       5.02000247        1       1.13384569      -1.12171459       0.42698726
C        2.70069674      -2.49618496       5.82866775        1       1.32655036      -0.34791973       2.49107218
O        2.56099371      -1.10588099       6.34901153        1      -1.18851924      -2.28191876      -1.82492459
C        1.28101782      -0.60152198       5.83027040        1       0.23064542      -1.11936045       0.46516323
H        1.20347885      -1.30759300       3.78276264        1      -0.38625592      -0.30692211       0.12921935
H       -0.15098518      -1.93216814       4.81819736        1       0.37357101      -0.26812238      -0.19315436
O        3.49970678      -3.34180202       6.20364343        1      -1.78693628       3.08953953      -0.87504053
H        1.38214985       0.33114596       5.23239957        1       0.29504052      -0.38022476       1.00164628
H        0.49058083      -0.50950404       6.69036447        1       1.55732393      -0.14223672      -1.43951917
C       -4.60754379       2.63073434      -1.18642231        2      -0.89299703      -0.99956262       1.07499993
O       -3.86599859       3.56218614      -0.95730635        2      -1.71855319      -2.31765270      -0.50324804
O       -5.11451897       1.62768712      -0.18845236        2      -0.17515647       2.27080345      -3.93604827
O       -5.24712166       2.21790232      -2.31521937        2       1.61982405       0.79843271       0.46811771
C       -4.60003265       1.74823417       1.06525466        2      -0.68565148       0.72836882       1.03136587
C       -5.03925499       2.96900930      -3.51630327        2      -1.05924010       1.25477993      -0.74340379
H       -4.77795299       0.83546521       1.58654371        2      -0.26793444      -0.48520911       0.49757650
H       -3.59713587       1.89867629       0.88943664        2       2.93272734       0.27546728       0.40072817
H       -4.96085295       2.62628331       1.62135462        2      -0.29617435      -0.28048736      -0.03984093
H       -5.65068277       2.53123226      -4.35545226        2       0.26893502       0.32367909       1.32998264
H       -5.26330265       4.03460016      -3.28051325        2      -0.82858866      -0.48280072      -0.04515934
H       -4.08317455       3.16231622      -3.97079154        2       1.11594117      -1.10983062       0.45995602
C        3.70112078       3.70429236       0.08967109        3       6.08087063       0.17171273      -1.53258681
O        5.03244584       3.73635251      -0.11905291        3      -6.76936245      -1.24427831       1.33910239
O        2.81571381       2.67851359       0.19525609        3       2.10228205       0.61513627      -0.72081947
O        3.08117788       4.85766751       0.07332309        3      -1.56190467      -0.27306104       1.17415643
C        3.26174681       1.36178142      -0.17558291        3       0.52814168      -0.42978215      -0.61803371
C        3.68094962       6.17464835       0.18470508        3       1.88094795      -2.98847437       2.33107781
C        2.17372887       0.36188954       0.14077209        3      -0.92903733      -2.26498055       0.80157936
H        3.70850890       1.24178654      -1.19944086        3      -1.07128704       0.84395432       0.37644506
H        4.13883154       1.14406353       0.45944009        3      -1.29697323       1.05497825      -1.24377525
H        4.36655466       6.29060132       1.11052105        3      -1.10817933      -0.34025455      -1.51624990
H        4.13625376       6.21272236      -0.72750893        3       2.14202690       1.01924849      -2.25376844
H        2.44238679      -0.67672247      -0.00996991        3       1.01985765      -0.20742679      -0.94440734
H        2.12067168       0.27920658       1.24076614        3      -1.25766671       1.33539248      -0.59409392
H        1.15490680       0.20842052      -0.37262192        3       1.33518171       1.99438453       0.68650544
H        2.87197583       6.77449852       0.18342509        3      -2.43321705       2.09723949       0.51270252
C        5.10740771      -0.50345900       1.02780885        4      -0.39644694       1.65615737      -4.89074659
O        4.35471501       0.31792398       1.84430677        4      -0.21891230       2.25202227       2.25902748
C        3.66636004      -0.37496701       2.74321681        4      -0.02385604      -0.80736685       2.51883268
O        4.15639367      -1.62193796       2.71895176        4       1.65729952      -1.11636245      -0.43874788
C        5.33145490      -1.71580001       1.74970180        4       0.64732218       0.21379906       3.09618354
H        4.34884992      -0.76027503       0.20811480        4       1.59701121      -0.14694208       0.31152308
H        5.97438874       0.04610899       0.46399480        4      -1.33301795      -0.87838387       1.40231860
O        2.83755984       0.03950299       3.53108698        4       1.62608194      -0.70862705      -2.01287842
H        5.30468001      -2.59577712       1.21560675        4      -0.92866564      -1.93164086      -0.99322903
H        6.40798774      -1.73028704       2.11489779        4      -1.21898723       0.13683966       0.90906274
C       -2.68539130      -3.23184506      -1.38702589        5       0.38343757      -4.86583710       0.37355340
O       -2.17742836      -2.62260405      -2.23395889        5       0.01433814       1.56408381      -2.83389807
O       -2.49298536      -3.04796116      -0.13055485        5      -1.10378778       0.42737651       2.06556058
O       -3.14275038      -4.62926118      -1.48948389        5      -1.39222467       3.00013876       2.07312894
C       -2.24853050      -1.72193925       0.28131015        5      -0.29871392       1.76253939       2.33297992
C       -3.28168141      -5.30291716      -2.69633477        5       3.20011973       1.80851924      -2.20507145
C       -2.26212441      -1.61312525       1.89669413        5      -1.44866657       0.21838945       1.23962796
H       -1.23248433      -1.42077510      -0.08426886        5      -0.80765986       0.02686155       0.30055046
H       -3.07519137      -1.00592212      -0.00700385        5       0.80568278      -0.87072420      -0.39774945
C       -3.71914732      -6.73270623      -2.45487183        5      -6.76478672       1.68256950      -2.05993342
H       -3.72624027      -4.69143121      -3.60921686        5      -0.38490599      -1.20868838       1.86884940
H       -2.20245134      -5.10441129      -2.97845786        5      -0.32398319      -1.93613124      -0.89743870
H       -4.31953823      -7.13499419      -3.40754193        5       2.20033312       0.50456178       1.34756613
H       -3.22057950      -7.50558822      -1.96553295        5       1.02149093      -0.15631327       0.49177939
H       -4.82099544      -6.49050919      -1.89762276        5       2.78541327      -0.85050666      -0.21830618
H       -2.01573240      -0.65080420       2.42909104        5      -0.07860515      -0.32841396      -1.50547373
H       -3.19746839      -1.92080514       2.54010922        5       1.11096454       0.25636894      -2.13507533
H       -1.52192747      -2.27279417       2.24705607        5       1.07912934      -1.03635097       0.15877607
77
Properties=species:S:1:pos:R:3:molID:I:1:forces:R:3 Nmols=6 Comp=DEC(1):DMC(2):EC(2):EMC(1) energy=-3736.874755859375 pbc="F F F"
C       -1.89711549       1.16727947      -5.46392165        0       0.88355023       0.63025540       5.35881186
O       -1.90870454       1.50780545      -4.27454005        0      -1.00739086      -0.07451290      -1.11812401
O       -0.87712957       1.51398050      -6.16972171        0       1.89336145       0.23344302      -2.95248866
O       -2.65413048       0.24994250      -5.95834981        0      -0.31834030      -0.20011485      -1.86739469
C        0.14615141       2.40757953      -5.64650880        0      -3.00447059       2.38766718      -0.98821676
C       -3.88186361      -0.16073752      -5.44859468        0      -2.67091870       2.63455200      -3.33806753
H        0.74504040       2.94403540      -6.41452275        0      -0.75058675      -0.56517029      -0.17993540
H       -0.49617858       3.24258147      -5.16653405        0       1.39588332      -1.04688597      -0.02787519
H        0.85524539       1.89341937      -5.10331165        0       0.89790779      -1.10085046       1.59795165
H       -4.44439461      -0.55754553      -6.33181869        0       0.61856639       0.28985852       0.18279314
H       -3.81277038      -0.91418953      -4.83120166        0       1.02980471      -3.99288797       3.46163368
H       -4.63922455       0.51449947      -5.01407968        0       1.03305650       0.80269837      -0.13069531
C        1.00515537      -1.79498071       4.97058436        1      -1.63136184       2.79613113      -0.11340070
O        1.77505247      -2.86816973       5.22078510        1       1.13428068      -1.13126898       0.43624127
C        2.77555935      -2.56748671       6.02945038        1       1.32714689      -0.35024700       2.48988366
O        2.63585632      -1.17718274       6.54979416        1      -1.17641187      -2.29510283      -1.81351006
C        1.35588043      -0.67282373       6.03105303        1       0.23275673      -1.12267745       0.48573136
H        1.27834146      -1.37889475       3.98354527        1      -0.34494096      -0.27548057       0.04740864
H       -0.07612257      -2.00346989       5.01897999        1       0.36068487      -0.27561694      -0.18236089
O        3.57456939      -3.41310377       6.40442606        1      -1.78726494       3.08975744      -0.87493616
H        1.45701246       0.25984421       5.43318220        1       0.26815894      -0.32409763       1.01764750
H        0.56544344      -0.58080579       6.89114710        1       1.54980397      -0.14469683      -1.42903352
C       -4.77557771       2.71802684      -1.22835401        2      -0.89295495      -0.99975014       1.07551765
O       -4.03403251       3.64947864      -0.99923805        2      -1.71859634      -2.31770325      -0.50328308
O       -5.28255289       1.71497962      -0.23038406        2      -0.17514598       2.27080965      -3.93603182
O       -5.41515558       2.30519482      -2.35715107        2       1.62047994       0.79822063       0.47134793
C       -4.76806657       1.83552667       1.02332296        2      -0.68565798       0.72836643       1.03139222
C       -5.20728891       3.05630180      -3.55823497        2      -1.06054044       1.25975537      -0.74030316
H       -4.94598691       0.92275771       1.54461201        2      -0.26788658      -0.48525786       0.49753946
H       -3.76516979       1.98596879       0.84750494        2       2.93274713       0.27547067       0.40072179
H       -5.12888687       2.71357581       1.57942292        2      -0.29617569      -0.28048021      -0.03983108
H       -5.81871669       2.61852476      -4.39738396        2       0.24775672       0.35158467       1.32882845
H       -5.43133657       4.12189266      -3.32244495        2      -0.82590383      -0.47881612      -0.04191697
H       -4.25120847       3.24960872      -4.01272324        2       1.12145460      -1.12025285       0.45762599
C        3.82155395       3.82044001       0.09169893        3       6.08464956       0.18576856      -1.53427589
O        5.15287901       3.85250016      -0.11702507        3      -6.77160978      -1.24428797       1.33939135
O        2.93614698       2.79466124       0.19728393        3       1.93022919       0.81879604      -0.71146673
O        3.20161105       4.97381516       0.07535093        3      -1.56100643      -0.27332211       1.17432690
C        3.38217998       1.47792907      -0.17355507        3       0.69713396      -0.67286777      -0.35430557
C        3.80138279       6.29079600       0.18673292        3       1.88074052      -2.98897123       2.33103895
C        2.29416204       0.47803719       0.14279993        3      -1.03047967      -2.30389762       0.75663018
H        3.82894207       1.35793419      -1.19741302        3      -1.02392471       0.79583007       0.46541774
H        4.25926471       1.26021118       0.46146793        3      -0.93269390       0.58149296      -0.47155398
H        4.48698783       6.40674897       1.11254889        3      -1.10814011      -0.34020895      -1.51621795
H        4.25668693       6.32887001      -0.72548109        3       2.14206529       1.01932001      -2.25379992
H        2.56281996      -0.56057482      -0.00794207        3       1.11243546      -0.18608463      -0.91808200
H        2.24110485       0.39535423       1.24279398        3      -1.02450836       1.23169065      -0.45076084
H        1.27533997       0.32456817      -0.37059408        3       1.31648922       1.97291684       0.66796035
H        2.99240900       6.89064617       0.18545293        3      -2.43323016       2.09736991       0.51270950
C        5.25752347      -0.52617391       1.10819517        4      -0.35079622       1.61056888      -4.53987503
O        4.50483077       0.29520907       1.92469309        4      -0.63068014       2.57134819       1.04476190
C        3.81647580      -0.39768192       2.82360313        4       0.06802648      -0.46248204       2.03328061
O        4.30650943      -1.64465287       2.79933808        4       1.63553584      -1.31131828      -0.37802958
C        5.48157066      -1.73851492       1.83008812        4       0.64031422       0.12618554       3.17220211
H        4.49896568      -0.78298994       0.28850112        4       1.26394308       0.09771587       0.19093615
H        6.12450450       0.02339408       0.54438112        4      -1.31539571      -0.79440111       1.38654947
O        2.98767560       0.01678808       3.61147330        4       1.61769414      -0.70907003      -1.93185866
H        5.45479577      -2.61849203       1.29599307        4      -0.92002732      -1.93295503      -0.98282754
H        6.55810350      -1.75300195       2.19528411        4      -1.21961749       0.14416295       0.90417755
C       -2.78287020      -3.35980008      -1.42325358        5       0.38343883      -4.86583662       0.37355411
O       -2.27490726      -2.75055907      -2.27018658        5       0.01433653       1.56408179      -2.83389878
O       -2.59046426      -3.17591618      -0.16678254        5      -1.10379255       0.42737031       2.06555748
O       -3.24022928      -4.75721620      -1.52571158        5      -1.39222419       3.00013924       2.07312965
C       -2.34600940      -1.84989427       0.24508246        5      -0.29872411       1.76253486       2.33299065
C       -3.37916031      -5.43087218      -2.73256246        5       3.20011926       1.80851936      -2.20507216
C       -2.35960331      -1.74108027       1.86046644        5      -1.44867086       0.21839476       1.23962224
H       -1.32996323      -1.54873012      -0.12049655        5      -0.80559838       0.02828073       0.30029732
H       -3.17267027      -1.13387714      -0.04323154        5       0.80564624      -0.87067884      -0.39770719
C       -3.81662622      -6.86066125      -2.49109952        5      -6.76478672       1.68257189      -2.05993462
H       -3.82371917      -4.81938623      -3.64544455        5      -0.38490593      -1.20868874       1.86884904
H       -2.29993024      -5.23236631      -3.01468555        5      -0.32398456      -1.93613195      -0.89743888
H       -4.41701713      -7.26294921      -3.44376962        5       2.20033312       0.50456452       1.34756589
H       -3.31805840      -7.63354324      -2.00176064        5       1.02149343      -0.15631637       0.49178147
H       -4.91847434      -6.61846421      -1.93385045        5       2.78541183      -0.85050750      -0.21830565
H       -2.11321130      -0.77875922       2.39286335        5      -0.07860455      -0.32841682      -1.50547397
H       -3.29494729      -2.04876016       2.50388153        5       1.11096764       0.25636733      -2.13507581
H       -1.61940637      -2.40074919       2.21082838        5       1.07954383      -1.03624797       0.15955842
77
Properties=species:S:1:pos:R:3:molID:I:1:forces:R:3 Nmols=6 Comp=DEC(1):DMC(2):EC(2):EMC(1) energy=-3737.00537109375 pbc="F F F"
C       -1.96262001       1.20681233      -5.65835523        0       0.88380373       0.63047177       5.35893583
O       -1.97420906       1.54733831      -4.46897363        0      -1.00787950      -0.07418603      -1.11813200
O       -0.94263409       1.55351336      -6.36415529        0       1.89333248       0.23345947      -2.95247388
O       -2.71963500       0.28947536      -6.15278339        0      -0.31660032      -0.20068753      -1.86854076
C        0.08064689       2.44711239      -5.84094238        0      -3.00447750       2.38766170      -0.98821980
C       -3.94736813      -0.12120466      -5.64302826        0      -2.67055368       2.63343000      -3.33573294
H        0.67953588       2.98356826      -6.60895633        0      -0.75058603      -0.56516951      -0.17993563
H       -0.56168310       3.28211433      -5.36096763        0       1.39588451      -1.04688454      -0.02787471
H        0.78974087       1.93295223      -5.29774523        0       0.89790905      -1.10084999       1.59795260
H       -4.50989913      -0.51801267      -6.52625227        0       0.61810619       0.29046243       0.18272948
H       -3.87827490      -0.87465667      -5.02563524        0       1.02879536      -3.98938894       3.45994663
H       -4.70472907       0.55403233      -5.20851326        0       1.05118346       0.77041703      -0.13999429
C        1.08266978      -1.86880812       5.17847916        1      -1.62661171       2.78119349      -0.11388683
O        1.85256688      -2.94199714       5.42867990        1       1.13700318      -1.14679980       0.44982705
C        2.85307376      -2.64131412       6.23734518        1       1.32807827      -0.35187280       2.48937559
O        2.71337073      -1.25101015       6.75768896        1      -1.16266394      -2.31039619      -1.80197847
C        1.43339484      -0.74665114       6.23894783        1       0.24321246      -1.10203767       0.48801410
H        1.35585587      -1.45272216       4.19144007        1      -0.30506635      -0.23600994      -0.01718265
H        0.00139184      -2.07729730       5.22687479        1       0.35332492      -0.28196347      -0.17751080
O        3.65208380      -3.48693118       6.61232086        1      -1.78761530       3.08995485      -0.87493700
H        1.53452687       0.18601680       5.64107700        1       0.26169926      -0.29175246       1.01746941
H        0.64295785      -0.65463320       7.09904190        1       1.54542136      -0.14461689      -1.42366314
C       -4.94956378       2.80841144      -1.27177102        2      -0.89288610      -0.99985015       1.07595527
O       -4.20801858       3.73986324      -1.04265506        2      -1.71862352      -2.31773472      -0.50330567
O       -5.45653896       1.80536422      -0.27380107        2      -0.17514098       2.27080989      -3.93601871
O       -5.58914165       2.39557942      -2.40056808        2       1.62074280       0.79823065       0.47259772
C       -4.94205264       1.92591127       0.97990595        2      -0.68562651       0.72837359       1.03140938
C       -5.38127498       3.14668640      -3.60165198        2      -1.06030083       1.25803947      -0.74159682
H       -5.11997298       1.01314231       1.50119500        2      -0.26788563      -0.48526615       0.49755016
H       -3.93915586       2.07635339       0.80408793        2       2.93272591       0.27546957       0.40072340
H       -5.30287294       2.80396041       1.53600591        2      -0.29617435      -0.28047150      -0.03981990
H       -5.99270276       2.70890936      -4.44080097        2       0.22743255       0.38301575       1.33769381
H       -5.60532264       4.21227726      -3.36586196        2      -0.82512057      -0.47841206      -0.04132032
H       -4.42519454       3.33999332      -4.05614025        2       1.12193823      -1.12094045       0.45747194
C        3.94625314       3.94070187       0.09379861        3       6.06968403       0.20342530      -1.53387690
O        5.27757820       3.97276202      -0.11492539        3      -6.77331924      -1.24440026       1.33946633
O        3.06084617       2.91492310       0.19938361        3       1.84656096       0.93433678      -0.73453194
O        3.32631024       5.09407702       0.07745061        3      -1.56040645      -0.26959753       1.17401028
C        3.50687917       1.59819093      -0.17145539        3       0.77972072      -0.66188669      -0.30336040
C        3.92608198       6.41105786       0.18883260        3       1.88071322      -2.98890972       2.33104205
C        2.41886123       0.59829905       0.14489961        3      -1.20939386      -2.32843947       0.71558982
H        3.95364126       1.47819605      -1.19531334        3      -1.01598310       0.74057424       0.47062832
H        4.38396390       1.38047304       0.46356761        3      -0.64124161       0.22220111       0.02164614
H        4.61168702       6.52701083       1.11464857        3      -1.10810769      -0.34017378      -1.51619053
H        4.38138612       6.44913187      -0.72338141        3       2.14206862       1.01933551      -2.25380659
H        2.68751915      -0.44031296      -0.00584239        3       1.22813475      -0.21011269      -0.87430370
H        2.36580404       0.51561609       1.24489366        3      -0.82924181       1.09894133      -0.27764213
H        1.40003916       0.44483003      -0.36849440        3       1.28860617       1.96033502       0.65047896
H        3.11710819       7.01090803       0.18755261        3      -2.43323374       2.09741235       0.51271212
C        5.41295666      -0.54969343       1.19142895        4      -0.42605734       1.77917004      -4.46407413
O        4.66026396       0.27168955       2.00792687        4      -0.60502613       2.69026756       0.51515877
C        3.97190899      -0.42120144       2.90683691        4      -0.16142398      -0.23947695       1.78974783
O        4.46194262      -1.66817239       2.88257186        4       1.63416147      -1.38589132      -0.34851766
C        5.63700385      -1.76203444       1.91332190        4       0.63305664       0.08089659       3.21869183
H        4.65439887      -0.80650946       0.37173490        4       1.08764744       0.18454194       0.12559289
H        6.27993769      -0.00012544       0.62761490        4      -1.29325736      -0.78462100       1.38598621
O        3.14310879      -0.00673144       3.69470708        4       1.61559689      -0.77473831      -1.90405273
H        5.61022896      -2.64201155       1.37922685        4      -0.91553950      -1.93792689      -0.97782010
H        6.71353669      -1.77652147       2.27851789        4      -1.22050095       0.14903672       0.90189719
C       -2.88380203      -3.49228756      -1.46076453        5       0.38343289      -4.86584759       0.37355852
O       -2.37583909      -2.88304655      -2.30769753        5       0.01434213       1.56408715      -2.83391023
O       -2.69139609      -3.30840366      -0.20429349        5      -1.10379457       0.42736650       2.06555772
O       -3.34116111      -4.88970368      -1.56322253        5      -1.39222217       3.00014901       2.07313681
C       -2.44694123      -1.98238175       0.20757151        5      -0.29872572       1.76253486       2.33299255
C       -3.48009214      -5.56335966      -2.77007341        5       3.20011902       1.80851734      -2.20507407
C       -2.46053514      -1.87356775       1.82295549        5      -1.44867229       0.21839255       1.23962522
H       -1.43089506      -1.68121760      -0.15800750        5      -0.80559540       0.02828176       0.30029821
H       -3.27360210      -1.26636462      -0.08074249        5       0.80564541      -0.87067807      -0.39770356
C       -3.91755805      -6.99314873      -2.52861047        5      -6.76479149       1.68257475      -2.05993724
H       -3.92465100      -4.95187371      -3.68295550        5      -0.38490570      -1.20868909       1.86884987
H       -2.40086207      -5.36485379      -3.05219650        5      -0.32398379      -1.93613243      -0.89743948
H       -4.51794896      -7.39543669      -3.48128057        5       2.20033479       0.50456232       1.34756613
H       -3.41899023      -7.76603072      -2.03927159        5       1.02149367      -0.15631810       0.49178228
H       -5.01940617      -6.75095169      -1.97136140        5       2.78541636      -0.85050648      -0.21830583
H       -2.21414313      -0.91124670       2.35535240        5      -0.07860467      -0.32841682      -1.50547540
H       -3.39587912      -2.18124764       2.46637058        5       1.11096787       0.25636932      -2.13507819
H       -1.72033820      -2.53323667       2.17331743        5       1.07954514      -1.03624749       0.15955707
77
Properties=species:S:1:pos:R:3:molID:I:1:forces:R:3 Nmols=6 Comp=DEC(1):DMC(2):EC(2):EMC(1) energy=-3737.076171875 pbc="F F F"
C       -2.03044485       1.24774554      -5.85967609        0       0.88389313       0.63055420       5.35898781
O       -2.04203390       1.58827152      -4.67029449        0      -1.00788260      -0.07418990      -1.11814880
O       -1.01045893       1.59444657      -6.56547615        0       1.89332044       0.23346877      -2.95246196
O       -2.78745984       0.33040857      -6.35410425        0      -0.31655884      -0.20101225      -1.86869740
C        0.01282205       2.48804560      -6.04226324        0      -3.00447989       2.38765192      -0.98822224
C       -4.01519297      -0.08027145      -5.84434912        0      -2.66876602       2.63203526      -3.33574724
H        0.61171104       3.02450147      -6.81027719        0      -0.75058544      -0.56516951      -0.17993551
H       -0.62950794       3.32304754      -5.56228849        0       1.39588475      -1.04688430      -0.02787429
H        0.72191603       1.97388544      -5.49906609        0       0.89790475      -1.10084677       1.59795010
H       -4.57772397      -0.47707946      -6.72757313        0       0.61802304       0.29139698       0.18410867
H       -3.94609974      -0.83372346      -5.22695610        0       1.02776742      -3.98691797       3.45879245
H       -4.77255391       0.59496554      -5.40983412        0       1.04430175       0.77985382      -0.13716602
C        1.16292992      -1.94525067       5.39373806        1      -1.61887538       2.77935719      -0.12964517
O        1.93282702      -3.01843969       5.64393880        1       1.14231753      -1.16678905       0.46685565
C        2.93333390      -2.71775667       6.45260408        1       1.32857144      -0.35251579       2.48927212
O        2.79363087      -1.32745270       6.97294786        1      -1.15497518      -2.31897426      -1.79648912
C        1.51365498      -0.82309369       6.45420673        1       0.24931443      -1.08459032       0.49821234
H        1.43611601      -1.52916471       4.40669897        1      -0.31188956      -0.22659342      -0.05319077
H        0.08165198      -2.15373985       5.44213369        1       0.35019830      -0.28611732      -0.17567804
O        3.73234394      -3.56337373       6.82757976        1      -1.78773725       3.09002495      -0.87495315
H        1.61478701       0.10957425       5.85633590        1       0.26729044      -0.27466536       1.00824320
H        0.72321799      -0.73107575       7.31430080        1       1.54289591      -0.14524020      -1.42050791
C       -5.12971282       2.90199766      -1.31672595        2      -0.89291692      -0.99991721       1.07603085
O       -4.38816762       3.83344946      -1.08760999        2      -1.71861482      -2.31772447      -0.50331402
O       -5.63668800       1.89895044      -0.31875600        2      -0.17513490       2.27080631      -3.93600106
O       -5.76929069       2.48916564      -2.44552301        2       1.62080717       0.79844105       0.47256172
C       -5.12220168       2.01949749       0.93495102        2      -0.68565822       0.72837758       1.03142154