12
Properties=species:S:1:pos:R:3:molID:I:1:momenta:R:3:force_mace:R:3:forces:R:3 Nmols=1 Comp=DMC(1) energy_mace=-585.3839136848741 energy=-585.3839136848741 free_energy=-585.3839136848741 stress="0.0 0.0 0.0 0.0 0.0 0.0 0.0 0.0 0.0" pbc="F F F"
C       -0.06354920       0.02615914       0.03273994        0       0.17844136      -0.34376020       1.07719402      -0.76142675      -2.47899078      -2.00808623      -0.76142675      -2.47899078      -2.00808623
O       -1.09745824      -0.56171083      -0.33384407        0      -0.37132631       0.01130763       0.61994678       0.11179916       1.14490637       4.71530857       0.11179916       1.14490637       4.71530857
O        0.59339279       0.04178514       1.16893291        0      -0.06068457      -0.59711980      -0.95669715       0.68785812       1.03166938      -0.17813685       0.68785812       1.03166938      -0.17813685
O        0.70731479       0.58054012      -0.92796504        0      -0.60590825       0.76431855      -0.46687405       1.36125145       0.83600291       0.31688964       1.36125145       0.83600291       0.31688964
C       -0.18480919      -0.38314587       2.27627182        0      -0.04014364      -0.06563936      -0.56096274      -2.63041869       0.63023802       3.23829735      -2.63041869       0.63023802       3.23829735
C        0.11790480       0.31317315      -2.18905210        0       0.29358387      -0.58416592       0.23783068      -2.81534037       1.18936962      -5.26840220      -2.81534037       1.18936962      -5.26840220
H        0.50081283      -0.52887988       3.16355896        0       0.01339961       0.14254610       0.22731550      -2.40268887      -0.09098343      -2.66932027      -2.40268887      -0.09098343      -2.66932027
H       -0.99130619       0.37122315       2.57026887        0      -0.01864405       0.28794111      -0.37432648       2.34696205      -1.51477037      -0.35420302       2.34696205      -1.51477037      -0.35420302
H       -0.79898220      -1.19689691       1.93909299        0       0.07867573      -0.13808167       0.14732151       1.04599054      -0.18609071       1.65989599       1.04599054      -0.18609071       1.65989599
H        0.82173383       0.39293513      -3.04121518        0       0.06493475       0.18520010      -0.03584277      -1.64445932      -0.61267051       2.35787467      -1.64445932      -0.61267051       2.35787467
H       -0.51975018      -0.63449883      -2.23208618        0       0.25642326       0.05312722       0.01555753       2.78787144       2.14041316      -1.98092694       2.78787144       2.14041316      -1.98092694
H       -0.68493521       1.15580308      -2.35394812        0       0.21124824       0.28432625       0.06953715       1.91260124      -2.08909367       0.17080929       1.91260124      -2.08909367       0.17080929
12
Properties=species:S:1:pos:R:3:molID:I:1:momenta:R:3:force_mace:R:3:forces:R:3 Nmols=1 Comp=DMC(1) energy_mace=-586.7312640885509 energy=-586.7312640885509 free_energy=-586.7312640885509 stress="0.0 0.0 0.0 0.0 0.0 0.0 0.0 0.0 0.0" pbc="F F F"
C       -0.06433498      -0.05448135      -0.00267148        0       0.46480599      -0.89340454      -1.31813252       2.80547865       2.30701081      -0.34850687       2.80547865       2.30701081      -0.34850687
O       -1.12117376      -0.54473486      -0.18702422        0      -1.14688272      -0.45645819       3.05159488      -2.42795312      -1.46352038      -0.65305044      -2.42795312      -1.46352038      -0.65305044
O        0.61229978       0.00875127       1.15139213        0      -0.21656929      -0.82303584       0.74603443       0.15832618      -0.58900602       0.22559004       0.15832618      -0.58900602       0.22559004
O        0.67656716       0.62517846      -0.93777112        0      -0.46905671       0.63843434      -0.02128167      -1.05251377      -1.80360860      -0.55888851      -1.05251377      -1.80360860      -0.55888851
C       -0.23673811      -0.38669751       2.27403951        0      -0.33170430       0.14071078       0.46148576       1.05316709       3.24576577       0.73782923       1.05316709       3.24576577       0.73782923
C        0.16214997       0.35345936      -2.28301357        0       1.12007140       1.00852642      -2.48793857      -1.37497545       1.94517168       0.32210575      -1.37497545       1.94517168       0.32210575
H        0.37919130      -0.47022621       3.13633363        0       0.04192500       0.16042802      -0.36646484      -0.09761459       0.28055288      -0.09027230      -0.09761459       0.28055288      -0.09027230
H       -0.91346300       0.47025659       2.38997632        0       0.12429276      -0.36585713      -0.10752335       0.35925719      -2.10487706       0.25572740       0.35925719      -2.10487706       0.25572740
H       -0.67343291      -1.32071802       2.15474262        0      -0.05896395       0.35983185      -0.14712594      -1.29853439      -0.92429208      -0.61786633      -1.29853439      -0.92429208      -0.61786633
H        0.92708850       0.48162169      -2.96615186        0       0.02586930       0.26826318       0.28265085       1.25345218       1.05399563      -0.65186255       1.25345218       1.05399563      -0.65186255
H       -0.10744455      -0.65408202      -2.55671218        0       0.29128887       0.56655778       0.19993089      -0.97957738       0.52793924       1.36242887      -0.97957738       0.52793924       1.36242887
H       -0.63464134       1.12846556      -2.44266158        0       0.15492365      -0.60399667      -0.29322993       1.60148740      -2.47513189       0.01676571       1.60148740      -2.47513189       0.01676571
12
Properties=species:S:1:pos:R:3:molID:I:1:momenta:R:3:force_mace:R:3:forces:R:3 Nmols=1 Comp=DMC(1) energy_mace=-585.9389376993976 energy=-585.9389376993976 free_energy=-585.9389376993976 stress="0.0 0.0 0.0 0.0 0.0 0.0 0.0 0.0 0.0" pbc="F F F"
C       -0.05402250      -0.07330059      -0.07760303        0      -0.83773275       0.28905224      -0.20347882      -2.33086040       0.04341656       2.80198732      -2.33086040       0.04341656       2.80198732
O       -1.16852951      -0.57663452      -0.06651741        0       0.28600443      -0.57958926       0.54608290       1.42293364       0.47954968      -2.11582543       1.42293364       0.47954968      -2.11582543
O        0.61393494      -0.07004189       1.14811078        0      -0.09840524      -1.48804763      -0.70447152       0.31896580       0.23544861      -0.97385556       0.31896580       0.23544861      -0.97385556
O        0.63058687       0.61206451      -0.95545370        0      -0.69232186      -0.21868394      -0.51430432       0.21984338       0.03859999       0.26169091       0.21984338       0.03859999       0.26169091
C       -0.24599751      -0.35192959       2.26646022        0      -0.81730368       0.72745356      -0.21919519       1.78208297       1.03030501       1.37912564       1.78208297       1.03030501       1.37912564
C        0.27987673       0.46975288      -2.35328639        0       1.03071846       0.94740137       0.60900370       1.09763689       1.27773407       4.98783254       1.09763689       1.27773407       4.98783254
H        0.34409932      -0.40675057       3.14870337        0       0.00461309      -0.04734223       0.44079627       0.59728574      -0.31484090      -0.25940228       0.59728574      -0.31484090      -0.25940228
H       -0.99733159       0.32875138       2.49708771        0       0.15607726      -0.00352018       0.07732704      -1.06292223       2.38283173      -0.34382113      -1.06292223       2.38283173      -0.34382113
H       -0.84740922      -1.17205358       2.15646544        0      -0.11915412      -0.38459845       0.11222062      -0.87539824      -3.24430955      -0.54424771      -0.87539824      -3.24430955      -0.54424771
H        1.02893043       1.00154998      -2.78078032        0       0.21963755       0.63201542       0.03218728       2.98840345       1.03222346      -2.29405732       2.98840345       1.03222346      -2.29405732
H        0.07672821      -0.50363423      -2.43688974        0       0.66180466       0.17236807      -0.27004575       0.27794535      -5.67659710      -1.59699649       0.27794535      -5.67659710      -1.59699649
H       -0.60912344       0.83196755      -2.68726230        0       0.20606220      -0.04650897       0.09387778      -4.43591635       2.71563844      -1.30243048      -4.43591635       2.71563844      -1.30243048
12
Properties=species:S:1:pos:R:3:molID:I:1:momenta:R:3:force_mace:R:3:forces:R:3 Nmols=1 Comp=DMC(1) energy_mace=-585.937859615872 energy=-585.937859615872 free_energy=-585.937859615872 stress="0.0 0.0 0.0 0.0 0.0 0.0 0.0 0.0 0.0" pbc="F F F"
C       -0.12244860      -0.04479986      -0.01543558        0      -0.19180935       0.33719946       1.02115654       0.46598912      -1.46801675      -1.37481129       0.46598912      -1.46801675      -1.37481129
O       -1.17818315      -0.59823280      -0.11301572        0      -1.14915475       0.14652879      -1.66449673      -1.51337065       0.15785682      -0.80573818      -1.51337065       0.15785682      -0.80573818
O        0.60453450      -0.15314127       1.11394459        0      -0.20561952      -1.32040436      -0.12322429      -0.10324475       0.52326376       1.44385900      -0.10324475       0.52326376       1.44385900
O        0.58174299       0.63388121      -0.91534729        0      -0.54514557       0.96947881       1.70760332       1.29557973       0.90913948       1.09172871       1.29557973       0.90913948       1.09172871
C       -0.28975280      -0.35196068       2.27270888        0       0.78111030      -0.19749127      -0.20089167       4.67610005      -3.67774426       1.23576844       4.67610005      -3.67774426       1.23576844
C        0.38984490       0.52185980      -2.32804533        0       1.30511567      -0.41814394      -0.44574255      -0.13882578       5.54679358       0.51510544      -0.13882578       5.54679358       0.51510544
H        0.42716481      -0.41277423       3.14180363        0       0.13296191       0.12156524       0.00864257      -2.53993522       0.73092772      -2.03389541      -2.53993522       0.73092772      -2.03389541
H       -0.94576119       0.43826497       2.27170188        0      -0.10084612      -0.07065112      -0.26083901      -1.47180923       0.82071692       0.81983055      -1.47180923       0.82071692       0.81983055
H       -0.74368635      -1.35634241       2.20963632        0      -0.30879911      -0.22206271      -0.05074994       0.09360323       2.17354700       0.05595533       0.09360323       2.17354700       0.05595533
H        1.11169192       1.23955137      -2.81424096        0       0.27256630       0.61206475      -0.14714306      -2.09314851      -0.48531815       1.11656631      -2.09314851      -0.48531815       1.11656631
H        0.84960284      -0.21683719      -2.80581802        0       0.23142125       0.53272264      -0.02517406       0.76024429      -4.59411019      -1.56373677       0.76024429      -4.59411019      -1.56373677
H       -0.63526038       0.75300837      -2.53342956        0      -0.22180101      -0.49080629       0.18085887       0.56881772      -0.63705593      -0.50063213       0.56881772      -0.63705593      -0.50063213
12
Properties=species:S:1:pos:R:3:molID:I:1:momenta:R:3:force_mace:R:3:forces:R:3 Nmols=1 Comp=DMC(1) energy_mace=-585.9749153574008 energy=-585.9749153574008 free_energy=-585.9749153574008 stress="0.0 0.0 0.0 0.0 0.0 0.0 0.0 0.0 0.0" pbc="F F F"
C       -0.15518802      -0.08229560      -0.02452912        0      -0.34618379      -1.06967487      -0.83859033       1.06340242      -0.13854818      -0.08009082       1.06340242      -0.13854818      -0.08009082
O       -1.23456378      -0.58622422      -0.20513870        0      -0.29883102       0.25814988      -1.00529739       1.68213760       0.73822002       0.37270759       1.68213760       0.73822002       0.37270759
O        0.62022040      -0.22278755       1.12874219        0       0.41076667      -0.71162572      -0.24428561      -1.10720503       0.28320571      -2.88367328      -1.10720503       0.28320571      -2.88367328
O        0.55606630       0.72707789      -0.83701943        0      -0.28606353       1.81064812       0.73806330      -0.00507270      -1.15037276      -1.96591679      -0.00507270      -1.15037276      -1.96591679
C       -0.23551349      -0.36803480       2.25747886        0      -0.20759136      -0.34946145       0.60151113      -2.02866161      -0.66952650       2.80418871      -2.02866161      -0.66952650       2.80418871
C        0.48529419       0.53114870      -2.32343209        0       0.50886110       0.11788646       1.39815888      -4.52762682       5.09998018       3.48268221      -4.52762682       5.09998018       3.48268221
H        0.30177505      -0.26140463       3.18979249        0      -0.30184305      -0.16437548      -0.25441301      -0.27058575      -0.84825933      -1.38503075      -0.27058575      -0.84825933      -1.38503075
H       -0.96134033       0.41033893       2.31739488        0       0.11369125       0.29484626      -0.13999841       0.01420713      -0.12071491      -0.37007515       0.01420713      -0.12071491      -0.37007515
H       -0.82292272      -1.30126999       2.20009728        0       0.28067440       0.17014336       0.01311658       1.36748361       1.43755061       0.18930753       1.36748361       1.43755061       0.18930753
H        0.76486747       1.61634418      -2.63276618        0      -0.47667457      -0.00219462      -0.21994410      -0.94648953      -4.82658303       0.11480485      -0.94648953      -4.82658303       0.11480485
H        0.92960106      -0.29884178      -2.69954468        0       0.49907519      -0.19511353       0.17902163       2.74145164      -1.52296030      -0.88037756       2.74145164      -1.52296030      -0.88037756
H       -0.57582791       0.19831581      -2.57196604        0       0.10411871      -0.15922842      -0.22734267       2.01695903       1.71800848       0.60147346       2.01695903       1.71800848       0.60147346
12
Properties=species:S:1:pos:R:3:molID:I:1:momenta:R:3:force_mace:R:3:forces:R:3 Nmols=1 Comp=DMC(1) energy_mace=-585.9994912669354 energy=-585.9994912669354 free_energy=-585.9994912669354 stress="0.0 0.0 0.0 0.0 0.0 0.0 0.0 0.0 0.0" pbc="F F F"
C       -0.11830993      -0.10619011      -0.07678712        0       0.88226322       0.95105426      -0.29309484      -1.46779779       0.85630650       2.21872638      -1.46779779       0.85630650       2.21872638
O       -1.22900113      -0.55188225      -0.25169559        0       0.61444855       0.44751597      -0.61255490       0.50986106      -0.58485966      -0.08568438       0.50986106      -0.58485966      -0.08568438
O        0.59960530      -0.27137052       1.06172920        0      -0.71527868      -0.89702122      -0.63252580      -0.09435543      -0.86445627       2.40646423      -0.09435543      -0.86445627       2.40646423
O        0.53809773       0.78862470      -0.79914746        0      -0.63178984       0.77408321       1.01784732       0.80240391       1.60269081       2.10509405       0.80240391       1.60269081       2.10509405
C       -0.26538277      -0.39923722       2.25311042        0       0.20609325      -1.20712769      -1.25505041      -0.62356575       3.26930768      -4.49935926      -0.62356575       3.26930768      -4.49935926
C        0.49500823       0.52339708      -2.15898254        0      -0.44650357      -0.09722575       0.57060248      -1.89380056       1.47007582      -6.47720456      -1.89380056       1.47007582      -6.47720456
H        0.27060379      -0.44203408       3.11771888        0       0.08837860      -0.02353243      -0.11296820       1.92135969       0.25060905       2.50641482       1.92135969       0.25060905       2.50641482
H       -0.95918941       0.44952972       2.23065541        0      -0.32312139       0.25381886       0.12762619       0.77724310      -1.05511605       0.57999811       0.77724310      -1.05511605       0.57999811
H       -0.79426395      -1.26623840       2.13021688        0      -0.31684269       0.10867161      -0.08368579      -1.80664940      -2.52773402      -0.20611125      -1.80664940      -2.52773402      -0.20611125
H        0.45608580       1.35952340      -2.92081968        0       0.00206672      -0.31051343       0.43516804       0.57793119      -1.49089306       2.26314425       0.57793119      -1.49089306       2.26314425
H        1.45015094       0.08048728      -2.30391369        0       0.42741231       0.40983067       0.24163303      -1.43637541      -0.59377016      -0.68892956      -1.43637541      -0.59377016      -0.68892956
H       -0.50869344       0.10559577      -2.42744931        0       0.21287352      -0.40955407       0.59700290       2.73374540      -0.33216066      -0.12255281       2.73374540      -0.33216066      -0.12255281
12
Properties=species:S:1:pos:R:3:molID:I:1:momenta:R:3:force_mace:R:3:forces:R:3 Nmols=1 Comp=DMC(1) energy_mace=-586.1361895120828 energy=-586.1361895120828 free_energy=-586.1361895120828 stress="0.0 0.0 0.0 0.0 0.0 0.0 0.0 0.0 0.0" pbc="F F F"
C       -0.12687816      -0.02361590      -0.00107033        0      -0.18825332       0.85177416       1.41754181      -0.26952453      -0.66594647      -1.95727330      -0.26952453      -0.66594647      -1.95727330
O       -1.18998413      -0.53490098      -0.31069514        0       0.26862445       0.07522900      -1.22408436       1.05744291       0.96368945       0.00945862       1.05744291       0.96368945       0.00945862
O        0.57673021      -0.35351990       1.08133543        0      -0.27308040      -1.40506613       0.64034900       0.30307223       0.60699695      -0.60887255       0.30307223       0.60699695      -0.60887255
O        0.55759369       0.87453882      -0.74903797        0       1.15608846       1.49113791       0.16665629      -1.26781634      -1.55849882      -1.91053530      -1.26781634      -1.55849882      -1.91053530
C       -0.32250558      -0.44623194       2.16870555        0      -0.95166472      -0.26935311      -0.01209635      -0.18838075       2.86462768       3.58381181      -0.18838075       2.86462768       3.58381181
C        0.49148846       0.50093375      -2.16415370        0       0.01486382      -0.14659327       0.04669336       1.79144155      -2.42720971       1.39973035       1.79144155      -2.42720971       1.39973035
H        0.35172920      -0.61922012       2.95698281        0       0.04824241      -0.28389297      -0.05122502      -0.32595376       0.33335878       0.61048667      -0.32595376       0.33335878       0.61048667
H       -0.93548377       0.52892409       2.40841321        0      -0.03412277       0.04705146      -0.06088484       1.66753806      -2.92286689      -0.79672758       1.66753806      -2.92286689      -0.79672758
H       -0.96477120      -1.25653307       2.14273576        0      -0.16721696      -0.11606219      -0.07009885      -1.51349658      -0.90376846      -0.66527807      -1.51349658      -0.90376846      -0.66527807
H        0.29647340       1.37199163      -2.65460598        0      -0.63276070      -0.39451616       0.16799769      -1.16819432       2.09788784      -1.37285100      -1.16819432       2.09788784      -1.37285100
H        1.43163290       0.12715117      -2.46905025        0       0.14925694      -0.10337617      -0.48758521       1.25259545       0.42624397       0.26614621       1.25259545       0.42624397       0.26614621
H        0.00369054      -0.38365981      -2.57913639        0       0.61002280       0.25366746      -0.53326353      -1.33872393       1.18548568       1.44190414      -1.33872393       1.18548568       1.44190414
12
Properties=species:S:1:pos:R:3:molID:I:1:momenta:R:3:force_mace:R:3:forces:R:3 Nmols=1 Comp=DMC(1) energy_mace=-586.1584857426301 energy=-586.1584857426301 free_energy=-586.1584857426301 stress="0.0 0.0 0.0 0.0 0.0 0.0 0.0 0.0 0.0" pbc="F F F"
C       -0.10632574      -0.01980154       0.00051925        0       1.04222846       0.29050444      -0.70090713       1.39592928       0.18438997      -0.67825483       1.39592928       0.18438997      -0.67825483
O       -1.13869050      -0.48556088      -0.39645216        0       0.33578044       0.92816121      -1.50315702      -1.73490721      -0.48986868       0.34459325      -1.73490721      -0.48986868       0.34459325
O        0.52869580      -0.40279152       1.11293210        0      -1.20089164       0.23623956       0.69167776      -0.35731098       1.16705389       0.82369964      -0.35731098       1.16705389       0.82369964
O        0.57387852       0.89325022      -0.77591665        0      -0.49174954      -1.12523029       0.00107156      -0.19595119      -1.75133148       2.03424027      -0.19595119      -1.75133148       2.03424027
C       -0.37565145      -0.50596280       2.24714153        0      -0.52911887      -0.77548203       1.12070443      -0.15925776       3.40175146       0.95742919      -0.15925776       3.40175146       0.95742919
C        0.54594591       0.50845170      -2.16996476        0       0.40067284       0.31496597      -0.25422744       2.26693501       0.17655310       0.82260297       2.26693501       0.17655310       0.82260297
H        0.18318155      -0.75639835       3.13342717        0      -0.45965800      -0.18556915       0.37335392      -0.54921849       0.24390025      -1.13260899      -0.54921849       0.24390025      -1.13260899
H       -0.98473620       0.46007865       2.46917043        0       0.30180145      -0.37019350       0.00466765       2.19122009      -2.31900010      -0.66495042       2.19122009      -2.31900010      -0.66495042
H       -1.13240727      -1.18096036       2.05212870        0      -0.07460481      -0.13085483      -0.08629879      -0.87726491      -1.46476948      -0.39315767      -0.87726491      -1.46476948      -0.39315767
H       -0.06872953       1.23323384      -2.52201090        0       0.02389695       0.18184159      -0.18214711      -0.49299180       2.31498205      -1.79844886      -0.49299180       2.31498205      -1.79844886
H        1.62508858       0.58330700      -2.45977495        0       0.30770336       0.64113827      -0.09031002      -3.22607212      -0.88032511      -0.27758594      -3.22607212      -0.88032511      -0.27758594
H       -0.05929532      -0.33706057      -2.46972113        0       0.34393938      -0.00552125       0.62557220       1.73889007      -0.58333588      -0.03755861       1.73889007      -0.58333588      -0.03755861
12
Properties=species:S:1:pos:R:3:molID:I:1:momenta:R:3:force_mace:R:3:forces:R:3 Nmols=1 Comp=DMC(1) energy_mace=-585.8384350506202 energy=-585.8384350506202 free_energy=-585.8384350506202 stress="0.0 0.0 0.0 0.0 0.0 0.0 0.0 0.0 0.0" pbc="F F F"
C       -0.06084764      -0.07894088      -0.01959563        0      -0.63389035      -1.56091848      -0.13082876      -3.28645733      -0.95419152       0.85703049      -3.28645733      -0.95419152       0.85703049
O       -1.13076587      -0.47123471      -0.47825587        0       0.06662821      -0.33268790      -1.10886199       0.91588880      -1.11593839       1.42235436       0.91588880      -1.11593839       1.42235436
O        0.48655319      -0.38962060       1.17940141        0      -0.09120864       0.30468493       1.28660561       0.77821502      -0.14271192      -1.48541343       0.77821502      -0.14271192      -1.48541343
O        0.55013787       0.82941950      -0.74865004        0       0.65803542      -0.42492855       0.03433335       2.83946421       2.32821335      -1.29205286       2.83946421       2.32821335      -1.29205286
C       -0.40748632      -0.54750816       2.30443944        0      -0.02141384       0.52651070       0.37259496      -2.49936223       2.27106610      -2.17299387      -2.49936223       2.27106610      -2.17299387
C        0.57029225       0.64825400      -2.18385721        0       0.75578332       1.41357786      -0.05402511       4.05934187      -0.96872865      -1.82683942       4.05934187      -0.96872865      -1.82683942
H       -0.10474469      -0.85088130       3.24764729        0      -0.11576110      -0.01418564      -0.14720473       1.60633871      -0.70510471       0.99264932       1.60633871      -0.70510471       0.99264932
H       -0.77834086       0.47094060       2.47155050        0      -0.02905682      -0.56608403       0.01400496      -0.15884538      -1.55835530      -0.11820852      -0.15884538      -1.55835530      -0.11820852
H       -1.17580138      -1.25171659       2.02386529        0      -0.19892797      -0.11890687      -0.01126160       0.16029044       0.74083707      -0.06479844       0.16029044       0.74083707      -0.06479844
H        0.02055326       1.28216358      -2.81550183        0      -0.69361061       0.05357434      -0.19741185      -1.57097619       0.12400991       0.98420280      -1.57097619       0.12400991       0.98420280
H        1.55736906       0.81733141      -2.72027853        0      -0.01276097       0.09838576       0.10678532      -1.27950810       0.30550007       2.31037620      -1.27950810       0.30550007       2.31037620
H        0.54202600      -0.37981174      -2.42869497        0       0.31618335       0.62097790      -0.16473017      -1.56438983      -0.32459602       0.39369335      -1.56438983      -0.32459602       0.39369335
12
Properties=species:S:1:pos:R:3:molID:I:1:momenta:R:3:force_mace:R:3:forces:R:3 Nmols=1 Comp=DMC(1) energy_mace=-585.6235809026042 energy=-585.6235809026042 free_energy=-585.6235809026042 stress="0.0 0.0 0.0 0.0 0.0 0.0 0.0 0.0 0.0" pbc="F F F"
C       -0.12730667      -0.13745889       0.01427614        0       0.28579888       0.20615036      -0.11282537       1.12084038       1.11164944      -2.58121494       1.12084038       1.11164944      -2.58121494
O       -1.12543218      -0.56960177      -0.51659607        0      -0.94474502      -2.45385971      -0.41065603       1.86485474       0.47300539       1.85360451       1.86485474       0.47300539       1.85360451
O        0.50618749      -0.36398947       1.18014849        0       0.02034920       0.52544998      -1.05331197      -3.23982248       0.73806247      -1.14892985      -3.23982248       0.73806247      -1.14892985
O        0.62372468       0.82119256      -0.73543204        0       2.01825848      -0.32400334       1.13580240       0.26643833      -2.17545812       2.73951659       0.26643833      -2.17545812       2.73951659
C       -0.45805366      -0.52368777       2.28651506        0      -1.11538393       0.59947501      -0.60319288       0.33328936      -3.71152474      -3.62760457       0.33328936      -3.71152474      -3.62760457
C        0.62087810       0.74912661      -2.21061881        0      -0.05257064       0.54501265       0.58360038      -2.72923257       4.84693638       5.54172940      -2.72923257       4.84693638       5.54172940
H        0.07413310      -0.99844315       3.05277857        0       0.38996622      -0.19775846      -0.00536413       0.21568333      -0.22434572       0.65931314       0.21568333      -0.22434572       0.65931314
H       -0.92244505       0.33218506       2.56696021        0       0.14106557      -0.23418447       0.05562038      -0.79598984       3.44393422       1.12275843      -0.79598984       3.44393422       1.12275843
H       -1.33823637      -1.12786187       1.97006841        0      -0.13219136       0.18329777       0.04328187       1.72193059       0.37133147       0.32345363       1.72193059       0.37133147       0.32345363
H       -0.34486173       1.24954744      -2.28939649        0      -0.03623007       0.38476462       0.49520655       1.54926619       0.53624428      -1.40443926       1.54926619       0.53624428      -1.40443926
H        1.51169938       1.30262480      -2.40674052        0      -0.58691858       0.31105992      -0.01048622      -0.97402812      -1.22142677      -1.29355492      -0.97402812      -1.22142677      -1.29355492
H        0.29063289      -0.14198309      -2.53027353        0       0.01260126       0.45459566      -0.11767498       0.66677009      -4.18840829      -2.18463216       0.66677009      -4.18840829      -2.18463216
12
Properties=species:S:1:pos:R:3:molID:I:1:momenta:R:3:force_mace:R:3:forces:R:3 Nmols=1 Comp=DMC(1) energy_mace=-585.8319876937248 energy=-585.8319876937248 free_energy=-585.8319876937248 stress="0.0 0.0 0.0 0.0 0.0 0.0 0.0 0.0 0.0" pbc="F F F"
C       -0.11786054      -0.11385951      -0.11357550        0       0.32180679       0.23991313      -1.87218015       2.29076217       0.28205841       2.21425640       2.29076217       0.28205841       2.21425640
O       -1.08039668      -0.69091589      -0.47055840        0       1.55560087      -1.35447014       1.13551874      -1.87353282      -0.36816603      -1.69117511      -1.87353282      -0.36816603      -1.69117511
O        0.42683719      -0.30541705       1.12524067        0      -1.10893048       0.72036307      -0.37963378       2.28837245       0.18030533      -1.08260459       2.28837245       0.18030533      -1.08260459
O        0.73784695       0.75488476      -0.64290246        0       1.47222590      -1.48829231       0.81222480      -0.62430272      -0.30948213      -2.42091667      -0.62430272      -0.30948213      -2.42091667
C       -0.48724985      -0.51331954       2.17516386        0      -0.17380973      -0.53847645      -1.41875375      -0.15463691      -2.84804607       4.53628640      -0.15463691      -2.84804607       4.53628640
C        0.50637334       0.84679540      -2.06522512        0      -1.46643536       2.64060250       1.60761779      -2.13677159       6.96502934       2.39568095      -2.13677159       6.96502934       2.39568095