12
Properties=species:S:1:pos:R:3:molID:I:1:momenta:R:3:force_mace:R:3:forces:R:3 Nmols=1 Comp=DMC(1) energy_mace=-587.7497490516378 energy=-587.7497490516378 free_energy=-587.7497490516378 stress="0.0 0.0 0.0 0.0 0.0 0.0 0.0 0.0 0.0" pbc="F F F"
C       -0.06354920       0.02615914       0.03273994        0       0.17844136      -0.34376020       1.07719402      -0.48420977      -1.03000963      -2.59980652      -0.48420977      -1.03000963      -2.59980652
O       -1.09745824      -0.56171083      -0.33384407        0      -0.37132631       0.01130763       0.61994678       1.09309440       1.15916642       3.08854387       1.09309440       1.15916642       3.08854387
O        0.59339279       0.04178514       1.16893291        0      -0.06068457      -0.59711980      -0.95669715      -0.96078263       0.16796530       0.60210482      -0.96078263       0.16796530       0.60210482
O        0.70731479       0.58054012      -0.92796504        0      -0.60590825       0.76431855      -0.46687405      -0.84488606      -0.70059709      -0.15086672      -0.84488606      -0.70059709      -0.15086672
C       -0.18480919      -0.38314587       2.27627182        0      -0.04014364      -0.06563936      -0.56096274      -0.39118857       1.30223547       1.18445459      -0.39118857       1.30223547       1.18445459
C        0.11790480       0.31317315      -2.18905210        0       0.29358387      -0.58416592       0.23783068      -1.91132088       1.48328215      -1.72168410      -1.91132088       1.48328215      -1.72168410
H        0.50081283      -0.52887988       3.16355896        0       0.01339961       0.14254610       0.22731550      -1.02428820      -0.16272452      -1.29654468      -1.02428820      -0.16272452      -1.29654468
H       -0.99130619       0.37122315       2.57026887        0      -0.01864405       0.28794111      -0.37432648       1.43107132      -0.38619512      -0.51755533       1.43107132      -0.38619512      -0.51755533
H       -0.79898220      -1.19689691       1.93909299        0       0.07867573      -0.13808167       0.14732151       0.17358005      -1.19304208       0.69767602       0.17358005      -1.19304208       0.69767602
H        0.82173383       0.39293513      -3.04121518        0       0.06493475       0.18520010      -0.03584277      -0.36594247      -0.30774966       1.09533182      -0.36594247      -0.30774966       1.09533182
H       -0.51975018      -0.63449883      -2.23208618        0       0.25642326       0.05312722       0.01555753       1.76661115       1.14027823      -0.77632726       1.76661115       1.14027823      -0.77632726
H       -0.68493521       1.15580308      -2.35394812        0       0.21124824       0.28432625       0.06953715       1.51826167      -1.47260948       0.39467348       1.51826167      -1.47260948       0.39467348
12
Properties=species:S:1:pos:R:3:molID:I:1:momenta:R:3:force_mace:R:3:forces:R:3 Nmols=1 Comp=DMC(1) energy_mace=-588.2445402041737 energy=-588.2445402041737 free_energy=-588.2445402041737 stress="0.0 0.0 0.0 0.0 0.0 0.0 0.0 0.0 0.0" pbc="F F F"
C       -0.06173990      -0.02111900      -0.00730294        0       0.17436768      -0.66869603      -1.34395679       1.81353788       0.76216196      -0.05589004       1.81353788       0.76216196      -0.05589004
O       -1.09697266      -0.53967381      -0.20713819        0      -0.50961761      -0.20889716       2.83204546      -2.55288701      -1.16542704      -0.17855044      -2.55288701      -1.16542704      -0.17855044
O        0.58055658      -0.00886023       1.14630135        0      -0.74499675      -1.18264043       0.42051444       0.84429904      -0.38917433      -0.02535291       0.84429904      -0.38917433      -0.02535291
O        0.64594684       0.59984174      -0.94373547        0      -0.72754590       0.36512187       0.11852601       0.66933522      -0.31927971       0.81141612       0.66933522      -0.31927971       0.81141612
C       -0.20893417      -0.37404083       2.24301545        0      -0.09318912       0.20676752      -0.61255324       0.30774753       1.50550007       0.76677114       0.30774753       1.50550007       0.76677114
C        0.16713990       0.35685999      -2.20791630        0       1.00137231       1.06254502      -1.16285705      -0.37188684       0.17128755      -3.44522167      -0.37188684       0.17128755      -3.44522167
H        0.41135725      -0.44512190       3.14796863        0       0.37656433       0.12136778       0.10991408      -0.08787017       0.29654440      -0.29364781      -0.08787017       0.29654440      -0.29364781
H       -0.88178044       0.52374155       2.31637744        0      -0.12903426       0.12951832      -0.05642054      -0.20355778      -1.39172976       0.62190896      -0.20355778      -1.39172976       0.62190896
H       -0.63891754      -1.36220771       2.13504472        0       0.02661200       0.08206092      -0.05618910      -0.57750324       0.09537995      -0.30422778      -0.57750324       0.09537995      -0.30422778
H        0.95916621       0.47433225      -2.97257602        0       0.39052339       0.20727600       0.05778570      -0.04347485       0.57376082       0.76269893      -0.04347485       0.57376082       0.76269893
H       -0.09345882      -0.72715395      -2.47497376        0       0.35302115       0.06650371      -0.03349103      -0.42954269       1.61513085       1.23335152      -0.42954269       1.61513085       1.23335152
H       -0.59503717       1.18420483      -2.41157233        0      -0.11807721      -0.18092751      -0.27331793       0.63180292      -1.75415478       0.10674398       0.63180292      -1.75415478       0.10674398
12
Properties=species:S:1:pos:R:3:molID:I:1:momenta:R:3:force_mace:R:3:forces:R:3 Nmols=1 Comp=DMC(1) energy_mace=-587.9030522059992 energy=-587.9030522059992 free_energy=-587.9030522059992 stress="0.0 0.0 0.0 0.0 0.0 0.0 0.0 0.0 0.0" pbc="F F F"
C       -0.05269306      -0.07746331      -0.06089106        0      -0.38510620      -0.70849361       0.13917956      -1.98989558      -0.57594324       2.37621052      -1.98989558      -0.57594324       2.37621052
O       -1.16506887      -0.56920749      -0.08831630        0      -1.10511407      -0.78113024       0.69377622       0.66530078       0.45991180      -1.82222206       0.66530078       0.45991180      -1.82222206
O        0.57703262      -0.09784369       1.12119585        0       0.23944977      -1.42882739      -0.97649138       1.03785385       0.55927875      -0.80893776       1.03785385       0.55927875      -0.80893776
O        0.62947007       0.61928255      -0.92547444        0       0.01592653       0.80601904       0.02779151      -0.51121346       0.11282777      -0.85071366      -0.51121346       0.11282777      -0.85071366
C       -0.20968170      -0.32858369       2.22939827        0      -0.83015865       0.17907848       0.04836443      -2.29891643       0.52556403       1.52764067      -2.29891643       0.52556403       1.52764067
C        0.28536598       0.46989065      -2.31275252        0       1.95315008       1.29186661      -0.78144061      -1.06074799      -1.64365060       0.66962862      -1.06074799      -1.64365060       0.66962862
H        0.41900406      -0.29261399       3.08018401        0       0.15919855       0.09868842       0.48025001       0.59197451      -0.40534307       0.57817405       0.59197451      -0.40534307       0.57817405
H       -1.03576729       0.39527734       2.47750990        0      -0.22681280       0.05908395       0.10772284       1.11097705       0.16272266      -1.06048850       1.11097705       0.16272266      -1.06048850
H       -0.80491952      -1.23127562       2.15372228        0      -0.03507190       0.08157496       0.10570352       0.63546120      -0.76913667       0.06097800       0.63546120      -0.76913667       0.06097800
H        1.14977934       1.01977144      -2.72201602        0      -0.05390655       0.59651682       0.11923232      -0.94267523      -0.90141824      -0.95272808      -0.94267523      -0.90141824      -0.95272808
H        0.04377039      -0.68131779      -2.43875425        0       0.30491838       0.02633198      -0.12576128       1.44515556       1.97540061      -0.32935768       1.44515556       1.97540061      -0.32935768
H       -0.74143674       0.84859110      -2.59647092        0      -0.03647315      -0.22070904       0.16167286       1.31672576       0.49978622       0.61181587       1.31672576       0.49978622       0.61181587
12
Properties=species:S:1:pos:R:3:molID:I:1:momenta:R:3:force_mace:R:3:forces:R:3 Nmols=1 Comp=DMC(1) energy_mace=-587.8232632474762 energy=-587.8232632474762 free_energy=-587.8232632474762 stress="0.0 0.0 0.0 0.0 0.0 0.0 0.0 0.0 0.0" pbc="F F F"
C       -0.13099950      -0.12278181      -0.00242850        0      -0.81423535       0.08620274       0.55638784       1.36352098       1.30768957      -1.91268637       1.36352098       1.30768957      -1.91268637
O       -1.21692452      -0.58708238      -0.12139701        0      -0.74351841       0.46732311      -1.40349541      -0.27726206      -0.09263111      -0.73484596      -0.27726206      -0.09263111      -0.73484596
O        0.60699381      -0.17955800       1.08093600        0       0.38503686      -1.56031993      -0.02020762      -1.42046894      -0.39511805       1.83667835      -1.42046894      -0.39511805       1.83667835
O        0.59024237       0.67461782      -0.92308650        0      -0.98732045       0.69170164       0.42304049       0.15822030      -0.98596945       2.00694075       0.15822030      -0.98596945       2.00694075
C       -0.26919102      -0.32629502       2.28130828        0      -0.08054013      -0.48845202      -0.01291936       0.67234101      -1.33668955      -2.29891989       0.67234101      -1.33668955      -2.29891989
C        0.42604316       0.54493381      -2.29004956        0       1.38341378       0.37386864       0.44841875      -0.43505059      -1.24534483      -2.34184111      -0.43505059      -1.24534483      -2.34184111
H        0.38277692      -0.30289189       3.08558287        0       0.31427897       0.00819923       0.38616293       0.76626255       0.71185623       1.36648889       0.76626255       0.71185623       1.36648889
H       -1.02342737       0.47383038       2.18942291        0      -0.09757956       0.11828640      -0.35816146       0.08225357      -0.60093727       0.64667621       0.08225357      -0.60093727       0.64667621
H       -0.66524424      -1.40338569       2.31994276        0       0.07708080       0.01149222       0.07568936      -0.05299964       1.64586061      -0.59990193      -0.05299964       1.64586061      -0.59990193
H        0.94381960       1.29046208      -2.89330816        0      -0.21495366       0.28115433      -0.15759226      -0.17328705       0.53240481       0.78682346      -0.17328705       0.53240481       0.78682346
H        0.98316825      -0.39352432      -2.74726869        0       0.65370674       0.41198499       0.00843600      -2.09922961       1.48341762       1.75709192      -2.09922961       1.48341762       1.75709192
H       -0.69081869       0.72455624      -2.41514131        0       0.12463042      -0.40144136       0.05424074       1.41569949      -1.02453858      -0.51250432       1.41569949      -1.02453858      -0.51250432
12
Properties=species:S:1:pos:R:3:molID:I:1:momenta:R:3:force_mace:R:3:forces:R:3 Nmols=1 Comp=DMC(1) energy_mace=-587.9655013757921 energy=-587.9655013757921 free_energy=-587.9655013757921 stress="0.0 0.0 0.0 0.0 0.0 0.0 0.0 0.0 0.0" pbc="F F F"
C       -0.13841706      -0.07543022      -0.03707287        0       0.14176040       0.39672154      -0.82915898      -1.73070119      -1.99495483       0.85904510      -1.73070119      -1.99495483       0.85904510
O       -1.24972085      -0.57905397      -0.20198053        0       0.04940456      -0.00974905      -0.93578527       2.43324027       1.19481346       0.11713255       2.43324027       1.19481346       0.11713255
O        0.59934799      -0.28000975       1.11663143        0      -0.57470774      -1.26032546       0.59212266      -0.61894889       0.59915728      -1.47381681      -0.61894889       0.59915728      -1.47381681
O        0.50812078       0.71630863      -0.84405116        0      -1.44476910       1.02935668       1.94171220       0.37781121       0.47459217      -1.15853773       0.37781121       0.47459217      -1.15853773
C       -0.19810322      -0.33180376       2.26336601        0       0.90159585      -0.57833366      -0.96276883      -3.26815380      -1.77169586      -2.59175309      -3.26815380      -1.77169586      -2.59175309
C        0.50009680       0.57065166      -2.29104404        0       0.72626958      -0.05040723       0.09988876       0.33387971      -2.93956864       0.27253797       0.33387971      -2.93956864       0.27253797
H        0.28847203      -0.12545733       3.10436816        0       0.06562479       0.23784380       0.36901365       2.24898420       0.08232989       2.81147512       2.24898420       0.08232989       2.81147512
H       -0.96838907       0.45870446       2.24509483        0      -0.07049052       0.30255693       0.00783695      -0.16588326      -0.19598762      -0.40336901      -0.16588326      -0.19598762      -0.40336901
H       -0.74146949      -1.35512105       2.24358708        0      -0.12416766       0.22386578      -0.08375948       0.86972169       1.66864453       0.28324147       0.86972169       1.66864453       0.28324147
H        0.72568742       1.58466384      -2.65464038        0      -0.27356629       0.15802489       0.12621826      -0.28738127      -0.90299920      -0.26568817      -0.28738127      -0.90299920      -0.26568817
H        1.31550223      -0.26637808      -2.54122732        0       0.20837133       0.08184132       0.06835417      -1.65568655       2.32874023       0.60396418      -1.65568655       2.32874023       0.60396418
H       -0.47278609       0.04819918      -2.64707881        0       0.39467478      -0.53139553      -0.39367410       1.46311787       1.45692857       0.94576843       1.46311787       1.45692857       0.94576843
12
Properties=species:S:1:pos:R:3:molID:I:1:momenta:R:3:force_mace:R:3:forces:R:3 Nmols=1 Comp=DMC(1) energy_mace=-588.141268122735 energy=-588.141268122735 free_energy=-588.141268122735 stress="0.0 0.0 0.0 0.0 0.0 0.0 0.0 0.0 0.0" pbc="F F F"
C       -0.16741890      -0.10401173      -0.04754241        0       0.28974510      -0.18447384       0.32542317       2.98307777       0.66524579       1.04875624       2.98307777       0.66524579       1.04875624
O       -1.22122146      -0.54678969      -0.25330472        0       0.12312273       0.31537614      -0.89301828      -2.78442523      -1.42081052      -0.65133165      -2.78442523      -1.42081052      -0.65133165
O        0.58081454      -0.34152180       1.07430534        0       0.17633281      -0.77896159      -1.42525958      -0.23966950      -0.25519456      -0.92241746      -0.23966950      -0.25519456      -0.92241746
O        0.45201059       0.78653448      -0.78918900        0      -0.84879242       1.29704959      -0.42848322       0.58467102       0.45041031      -1.17064740       0.58467102       0.45041031      -1.17064740
C       -0.20373741      -0.35387920       2.23156018        0      -0.89076263      -0.50857663      -0.62684322      -1.24507806      -1.55564128      -1.35299802      -1.24507806      -1.55564128      -1.35299802
C        0.57119718       0.55122165      -2.18679470        0       1.11056742      -0.24027537       2.16324958       0.49319783      -0.34660717      -1.66214852       0.49319783      -0.34660717      -1.66214852
H        0.39120067      -0.25350910       3.07373084        0       0.43723649      -0.31781979       0.15809299       0.91415721      -0.02520059       1.35514310       0.91415721      -0.02520059       1.35514310
H       -0.87178077       0.45940711       2.12432396        0      -0.09011814       0.30299617       0.01582946      -1.08786625       1.16609901       0.85019887      -1.08786625       1.16609901       0.85019887
H       -0.85195437      -1.28554075       2.26575879        0      -0.12740286      -0.11534925       0.14802317       0.92533055       0.85113971       0.03058148       0.92533055       0.85113971       0.03058148
H        0.30740900       1.50419656      -2.73168444        0      -0.35546180       0.01024705       0.02758800       0.98937774      -0.76826273       0.85887619       0.98937774      -0.76826273       0.85887619
H        1.67337255       0.15132181      -2.38046941        0       0.41295282       0.54952315       0.07964854      -2.98686441       0.99024896       0.35336297      -2.98686441       0.99024896       0.35336297
H       -0.24963007      -0.12119913      -2.61766472        0      -0.23741953      -0.32973563       0.45574939       1.45409132       0.24857308       1.26262421       1.45409132       0.24857308       1.26262421
12
Properties=species:S:1:pos:R:3:molID:I:1:momenta:R:3:force_mace:R:3:forces:R:3 Nmols=1 Comp=DMC(1) energy_mace=-587.8466660112098 energy=-587.8466660112098 free_energy=-587.8466660112098 stress="0.0 0.0 0.0 0.0 0.0 0.0 0.0 0.0 0.0" pbc="F F F"
C       -0.11158417      -0.08395166      -0.01552764        0       0.19705524       0.53256426      -0.24693213      -4.42518866       0.06092080      -3.21865615      -4.42518866       0.06092080      -3.21865615
O       -1.24328314      -0.54385572      -0.32259608        0      -0.14001957      -0.03397947      -0.93131498       3.08716308       1.01166754       1.13085511       3.08716308       1.01166754       1.13085511
O        0.56101616      -0.40517126       1.01374974        0      -0.99212147      -1.17861993       0.06046837      -0.22245654      -0.21716904       2.67742945      -0.22245654      -0.21716904       2.67742945
O        0.44726805       0.85754374      -0.79084406        0       0.82434938       0.99115868       1.31555264      -0.29319313      -0.12905544       3.37575905      -0.29319313      -0.12905544       3.37575905
C       -0.26969163      -0.35889762       2.21450280        0       0.04794246      -0.12052999      -0.39296262       0.72818140      -2.43126463      -2.36079629       0.72818140      -2.43126463      -2.36079629
C        0.60585803       0.53378440      -2.07044636        0      -0.09105108       0.12652771       1.08612338       1.10000962       0.27905026      -3.61007798       1.10000962       0.27905026      -3.61007798
H        0.41773873      -0.52833902       2.92374913        0       0.00285485      -0.11265629       0.04106223       2.23535415      -0.03442319       2.80537522       2.23535415      -0.03442319       2.80537522
H       -0.76259579       0.54443677       2.36424719        0      -0.06606207       0.15267397       0.18710403      -1.07891797       1.36638887      -0.19568093      -1.07891797       1.36638887      -0.19568093
H       -0.88445430      -1.27724424       2.30014761        0      -0.24191732      -0.00012080      -0.18012929      -0.49716934       0.69208365      -0.70447571      -0.49716934       0.69208365      -0.70447571
H        0.23153694       1.38148527      -2.65250736        0      -0.38247902      -0.06941029      -0.36213316      -0.79142228      -0.65705723      -0.09549196      -0.79142228      -0.65705723      -0.09549196
H        1.67049893       0.63271503      -2.35235403        0       0.11456719       0.19601174      -0.08341713      -0.27299030      -0.88300890       0.41368218      -0.27299030      -0.88300890       0.41368218
H        0.18267217      -0.46585552      -2.34280507        0       0.72688139      -0.48361959      -0.49342134       0.43062997       0.94186731      -0.21792200       0.43062997       0.94186731      -0.21792200
12
Properties=species:S:1:pos:R:3:molID:I:1:momenta:R:3:force_mace:R:3:forces:R:3 Nmols=1 Comp=DMC(1) energy_mace=-587.8662209229035 energy=-587.8662209229035 free_energy=-587.8662209229035 stress="0.0 0.0 0.0 0.0 0.0 0.0 0.0 0.0 0.0" pbc="F F F"
C       -0.18484914      -0.08327765      -0.07590150        0      -0.24375688       0.78387697       0.28698801       4.02981922       2.22197562       2.64834588       4.02981922       2.22197562       2.64834588
O       -1.19408544      -0.51969319      -0.38926930        0      -0.25788619      -0.05306596      -1.71983375      -4.10928321      -1.84392590      -1.77599311      -4.10928321      -1.84392590      -1.77599311
O        0.47429377      -0.46752462       1.06053975        0      -1.30613406      -0.40326173       0.61577231       1.43377527       0.33815605      -1.85963965       1.43377527       0.33815605      -1.85963965
O        0.48056349       0.91009625      -0.68384177        0       0.13348474       0.12982350       1.37921382      -0.58354927      -2.02553122      -2.29375296      -0.58354927      -2.02553122      -2.29375296
C       -0.23415143      -0.39773162       2.21764396        0       0.23904645      -0.92841187       0.41023761      -3.30417007      -0.00163159      -1.84043706      -3.30417007      -0.00163159      -1.84043706
C        0.65879751       0.55021084      -2.11968639        0       1.32541271       0.63821472      -0.77931824       0.79570078       1.17392619       1.49119335       0.79570078       1.17392619       1.49119335
H        0.34871175      -0.53237979       3.01489667        0      -0.29836578      -0.20968004       0.18770550       2.19410944      -0.93736457       2.85234057       2.19410944      -0.93736457       2.85234057
H       -0.77025123       0.51154861       2.34187050        0       0.07374509       0.22575939      -0.26870517      -0.15310539       1.75873172      -0.03428386      -0.15310539       1.75873172      -0.03428386
H       -1.07999665      -1.06729834       2.10217020        0       0.05540440      -0.01533818       0.01324303      -0.10148714      -1.03799460       0.57165897      -0.10148714      -1.03799460       0.57165897
H       -0.16839136       1.00949878      -2.68813324        0      -0.30068956      -0.26113120      -0.06246560       0.79947652       0.36571629       0.32804043       0.79947652       0.36571629       0.32804043
H        1.72259060       0.84441698      -2.20664846        0       0.24859654       0.47671796      -0.14819191      -0.81901483       0.27290161      -0.92947177      -0.81901483       0.27290161      -0.92947177
H        0.63912534      -0.49264742      -2.44179761        0       0.33114254      -0.38350356       0.08535439      -0.18227132      -0.28495960       0.84199921      -0.18227132      -0.28495960       0.84199921
12
Properties=species:S:1:pos:R:3:molID:I:1:momenta:R:3:force_mace:R:3:forces:R:3 Nmols=1 Comp=DMC(1) energy_mace=-587.6733915655096 energy=-587.6733915655096 free_energy=-587.6733915655096 stress="0.0 0.0 0.0 0.0 0.0 0.0 0.0 0.0 0.0" pbc="F F F"
C       -0.16859305      -0.06217379      -0.00289533        0      -0.70927958      -0.69353442      -0.21701725      -3.70553709      -2.20738531      -3.06329435      -3.70553709      -2.20738531      -3.06329435
O       -1.21635162      -0.55367864      -0.51997088        0       0.51929795      -0.23768777      -1.84558816       3.16696269       1.34758807       2.32416636       3.16696269       1.34758807       2.32416636
O        0.45834598      -0.50795770       1.05724922        0       0.34906751      -0.67992827       0.18229617      -0.17804547      -0.28567761       1.23993944      -0.17804547      -0.28567761       1.23993944
O        0.45333251       0.86930010      -0.68105138        0      -0.18967972      -1.00772162      -0.97425145       1.49824866       1.54555655      -0.75922770       1.49824866       1.54555655      -0.75922770
C       -0.27738481      -0.40840923       2.28470748        0      -0.20059953       0.14153783       1.09121407      -0.38799082      -0.72082584      -2.53216594      -0.38799082      -0.72082584      -2.53216594
C        0.76670088       0.64814512      -2.11242629        0       0.93246376       1.54571955       1.49810557      -2.19242086       0.25804487       2.36026834      -2.19242086       0.25804487       2.36026834
H        0.18185802      -0.58902936       3.17111124        0      -0.22045724       0.13161749      -0.15987793       2.22973585      -0.77059068       2.02191207       2.22973585      -0.77059068       2.02191207
H       -0.52581828       0.60301232       2.33340449        0      -0.06454291       0.02613188       0.39450492      -1.30802371       1.75670146       0.24272380      -1.30802371       1.75670146       0.24272380
H       -1.10206986      -1.12106173       2.28872940        0      -0.04703294       0.01260099       0.19850523      -0.47175609       0.27425024      -0.65515530      -0.47175609       0.27425024      -0.65515530
H       -0.11275745       1.00859350      -2.64130883        0      -0.33806380       0.07950032      -0.07219253      -0.64813890      -0.73506088      -0.11533662      -0.64813890      -0.73506088      -0.11533662
H        1.45574812       1.30086969      -2.57520719        0      -0.22325128       0.50067615      -0.31126908       1.42111109      -0.02137171       0.44514084       1.42111109      -0.02137171       0.44514084
H        0.89999293      -0.41649433      -2.08518831        0       0.19207779       0.18108786       0.21557044       0.57585467      -0.44122916      -1.50897094       0.57585467      -0.44122916      -1.50897094
12
Properties=species:S:1:pos:R:3:molID:I:1:momenta:R:3:force_mace:R:3:forces:R:3 Nmols=1 Comp=DMC(1) energy_mace=-587.839842767461 energy=-587.839842767461 free_energy=-587.839842767461 stress="0.0 0.0 0.0 0.0 0.0 0.0 0.0 0.0 0.0" pbc="F F F"
C       -0.24332715      -0.12280785      -0.06954231        0       0.94932088      -0.47556734      -1.10012308       4.60373465       0.67686487       1.16996984       4.60373465       0.67686487       1.16996984
O       -1.15724000      -0.59955160      -0.58955627        0      -0.96514279      -1.74268336      -1.28015981      -2.95526180      -1.73750889      -0.15995182      -2.95526180      -1.73750889      -0.15995182
O        0.46873614      -0.53461169       1.09790102        0      -0.44020384      -0.04501592       0.97421514      -2.59278272       1.31979900      -0.29108870      -2.59278272       1.31979900      -0.29108870
O        0.45538681       0.85150176      -0.70822475        0       0.87762310       0.50067434       0.73182520       0.80813379       0.50763550       3.25338378       0.80813379       0.50763550       3.25338378
C       -0.28606092      -0.37841344       2.33099516        0       0.31159003       0.27284941       0.57907554      -0.66687491      -1.39176920      -3.30720886      -0.66687491      -1.39176920      -3.30720886
C        0.76610136       0.77942086      -2.02143110        0      -0.92748078       0.62040016       0.46795608      -1.84596144      -1.95454431      -1.18346524      -1.84596144      -1.95454431      -1.18346524
H        0.29487588      -0.73534793       3.10733548        0      -0.03874007      -0.16396421      -0.40408171       0.80300014      -0.51730236       1.21440161       0.80300014      -0.51730236       1.21440161
H       -0.67265825       0.58319135       2.45738294        0      -0.05022410      -0.01418418      -0.19350620       0.23918999       1.91028772       0.06454171       0.23918999       1.91028772       0.06454171
H       -1.24535875      -0.92271868       2.19538382        0      -0.11250413       0.28443390      -0.08734031       0.57748363      -0.48663950       0.12588795       0.57748363      -0.48663950       0.12588795
H       -0.23574008       0.77479562      -2.40167804        0      -0.16168582      -0.09892298       0.20568857      -0.20703006       0.98787570      -1.26354112      -0.20703006       0.98787570      -1.26354112
H        1.40822066       1.54227648      -2.35343695        0       0.25209027       0.48397080       0.40166663       0.49457891       0.92300016      -0.21252040       0.49457891       0.92300016      -0.21252040
H        1.09534828      -0.19030673      -2.39552179        0       0.30535726       0.37800939      -0.29521606       0.74178981      -0.23769869       0.58959126       0.74178981      -0.23769869       0.58959126
12
Properties=species:S:1:pos:R:3:molID:I:1:momenta:R:3:force_mace:R:3:forces:R:3 Nmols=1 Comp=DMC(1) energy_mace=-587.6618092220782 energy=-587.6618092220782 free_energy=-587.6618092220782 stress="0.0 0.0 0.0 0.0 0.0 0.0 0.0 0.0 0.0" pbc="F F F"
C       -0.15224614      -0.18536372      -0.13683131        0       0.04498435      -1.41376281      -0.31775138      -2.88354738      -0.98430212       1.27983304      -2.88354738      -0.98430212       1.27983304
O       -1.17408693      -0.71614879      -0.61123074        0       1.61268617      -1.02663117       0.76701633       4.01245490       1.96070743       1.40896208       4.01245490       1.96070743       1.40896208
O        0.39142985      -0.49752369       1.11430063        0      -0.94491597       0.30809121      -0.79840206       1.19376345      -0.83708878      -3.79759962       1.19376345      -0.83708878      -3.79759962
O        0.52621355       0.88271104      -0.59815076        0       0.99705829       0.15440468       1.69448467      -1.10231218      -1.69567936      -1.53273337      -1.10231218      -1.69567936      -1.53273337
C       -0.29782781      -0.36395471       2.25958251        0      -0.35269894      -0.03519047      -1.10683998      -1.44231417      -0.31288730      -0.01193225      -1.44231417      -0.31288730      -0.01193225
C        0.68592953       0.83947016      -2.03194849        0      -1.03602467       0.95566113      -0.41974505      -2.75114460      -0.40044752       1.57706456      -2.75114460      -0.40044752       1.57706456