12
Properties=species:S:1:pos:R:3:molID:I:1:momenta:R:3:force_mace:R:3:forces:R:3 Nmols=1 Comp=DMC(1) energy_mace=-589.241231021686 energy=-589.241231021686 free_energy=-589.241231021686 stress="0.0 0.0 0.0 0.0 0.0 0.0 0.0 0.0 0.0" pbc="F F F"
C       -0.06354920       0.02615914       0.03273994        0       1.33991095       0.19878032       0.55671667      -1.00183742      -1.37393989      -2.34091805      -1.00183742      -1.37393989      -2.34091805
O       -1.09745824      -0.56171083      -0.33384407        0      -0.03105084       0.26324437       0.39105043       1.21265896       1.13183207       3.05799886       1.21265896       1.13183207       3.05799886
O        0.59339279       0.04178514       1.16893291        0      -0.06204108      -0.94721010      -0.39894575      -0.62266480       0.30175317       0.50602836      -0.62266480       0.30175317       0.50602836
O        0.70731479       0.58054012      -0.92796504        0      -0.73912539       0.47508673       0.12792315      -0.43801950      -0.52022865      -0.30390364      -0.43801950      -0.52022865      -0.30390364
C       -0.18480919      -0.38314587       2.27627182        0      -0.18153081       0.28776973       0.66355346      -0.59638573       1.26335277       1.28942483      -0.59638573       1.26335277       1.28942483
C        0.11790480       0.31317315      -2.18905210        0      -0.23750489      -0.47990007      -0.65183819      -2.07463132       1.44771214      -1.72668990      -2.07463132       1.44771214      -1.72668990
H        0.50081283      -0.52887988       3.16355896        0      -0.13385754      -0.08858415      -0.04933308      -0.81660056      -0.09904202      -1.18143542      -0.81660056      -0.09904202      -1.18143542
H       -0.99130619       0.37122315       2.57026887        0      -0.24955936       0.12880142      -0.13425716       1.39085738      -0.36860896      -0.46199783       1.39085738      -0.36860896      -0.46199783
H       -0.79898220      -1.19689691       1.93909299        0       0.21666726      -0.03190131      -0.42276003      -0.00806750      -1.24058125       0.43250759      -0.00806750      -1.24058125       0.43250759
H        0.82173383       0.39293513      -3.04121518        0       0.10046716       0.14335649       0.11337336      -0.18783330      -0.22826534       0.93338239      -0.18783330      -0.22826534       0.93338239
H       -0.51975018      -0.63449883      -2.23208618        0       0.02828386      -0.00910104       0.10390504       1.66525356       1.19877757      -0.52233749       1.66525356       1.19877757      -0.52233749
H       -0.68493521       1.15580308      -2.35394812        0      -0.05065932       0.05965762      -0.29938790       1.47727021      -1.51276162       0.31794031       1.47727021      -1.51276162       0.31794031
12
Properties=species:S:1:pos:R:3:molID:I:1:momenta:R:3:force_mace:R:3:forces:R:3 Nmols=1 Comp=DMC(1) energy_mace=-589.6179103742007 energy=-589.6179103742007 free_energy=-589.6179103742007 stress="0.0 0.0 0.0 0.0 0.0 0.0 0.0 0.0 0.0" pbc="F F F"
C       -0.03381902      -0.01587223      -0.02406542        0      -0.08157304      -0.72446161      -0.99202236       0.19039751      -0.20879658       1.37597287       0.19039751      -0.20879658       1.37597287
O       -1.07921898      -0.55030153      -0.24247022        0       0.28591098       0.24121978       2.24115025      -1.07374838      -0.46877643       0.28077843      -1.07374838      -0.46877643       0.28077843
O        0.57116108      -0.01290468       1.16459749        0      -0.48830814      -0.74201929      -0.34373712       0.31847990       0.16393863      -0.09883009       0.31847990       0.16393863      -0.09883009
O        0.69213162       0.60358849      -0.93492110        0      -0.54902475      -0.62965469      -0.63358091      -0.97399149      -0.40152471      -0.78700496      -0.97399149      -0.40152471      -0.78700496
C       -0.24279444      -0.36808714       2.27644969        0      -0.05550312      -0.02939762      -0.65504093       1.75776162       0.86753334       1.82875145       1.75776162       0.86753334       1.82875145
C        0.11580616       0.36442265      -2.23759768        0       0.64135254       1.05927691      -0.23689438       0.35727269       1.88168058      -0.94763395       0.35727269       1.88168058      -0.94763395
H        0.47069919      -0.59496405       3.17429587        0      -0.00101955       0.18393760       0.06932396      -1.08837919       0.98441123      -1.49550278      -1.08837919       0.98441123      -1.49550278
H       -0.92562190       0.49882973       2.47375562        0      -0.08637876       0.28139055       0.13563286       0.40963443      -1.06998383      -0.03453702       0.40963443      -1.06998383      -0.03453702
H       -0.66891455      -1.33035936       2.13875474        0      -0.15925810      -0.10348291       0.54523910      -1.04698384      -0.61008597      -0.61001322      -1.04698384      -0.61008597      -0.61001322
H        0.98745742       0.53919722      -2.87786173        0       0.16414058       0.06846367      -0.01742348      -0.40178024      -0.18356525      -0.35387807      -0.40178024      -0.18356525      -0.35387807
H       -0.24331751      -0.68434126      -2.37226206        0       0.44004041       0.06465591      -0.14950068       0.16532901       0.98449163       0.09810902       0.16532901       0.98449163       0.09810902
H       -0.66240536       1.20318661      -2.49421685        0      -0.11037905       0.33007169       0.03685369       1.38600797      -1.93932264       0.74378830       1.38600797      -1.93932264       0.74378830
12
Properties=species:S:1:pos:R:3:molID:I:1:momenta:R:3:force_mace:R:3:forces:R:3 Nmols=1 Comp=DMC(1) energy_mace=-589.5556135817726 energy=-589.5556135817726 free_energy=-589.5556135817726 stress="0.0 0.0 0.0 0.0 0.0 0.0 0.0 0.0 0.0" pbc="F F F"
C       -0.01904335      -0.08769784      -0.04762510        0      -0.18725437      -0.65299239       0.54287100      -1.49221226       0.47526928       0.62353904      -1.49221226       0.47526928       0.62353904
O       -1.13060686      -0.53952040      -0.10620484        0      -2.24637773       0.37466498       1.82681357      -0.41324389      -0.30967211      -1.57318834      -0.41324389      -0.30967211      -1.57318834
O        0.54348442      -0.06590949       1.14706850        0       0.12332415      -0.69772904       0.23291520       1.56561024       0.10585410      -0.35255518       1.56561024       0.10585410      -0.35255518
O        0.66425389       0.57147093      -0.98838207        0       0.32600469      -0.84955337      -0.67466827       0.58230384       0.03555312       2.39192944       0.58230384       0.03555312       2.39192944
C       -0.26001759      -0.34782848       2.26299281        0       0.74149607       0.35852043       0.00629672       1.69822066       2.69317943       2.07866117       1.69822066       2.69317943       2.07866117
C        0.23880803       0.46588365      -2.26858409        0       2.01994030       0.22481850      -0.95530036      -3.11186908      -0.95893456      -2.43283528      -3.11186908      -0.95893456      -2.43283528
H        0.54015866      -0.28537416       3.08121900        0       0.16018170       0.34116142       0.00497207      -1.60613344      -0.52979582      -0.70811894      -1.60613344      -0.52979582      -0.70811894
H       -0.97779794       0.49356957       2.44181800        0      -0.48012273       0.23453557      -0.06406445       0.52031591      -0.61255168      -0.32070279       0.52031591      -0.61255168      -0.32070279
H       -0.81584514      -1.24112201       2.23621350        0      -0.14249235       0.07115430      -0.33849627      -0.27095219      -1.28087661      -0.31514757      -0.27095219      -1.28087661      -0.31514757
H        1.04873120       0.62312251      -2.93846859        0       0.03558486       0.35380058      -0.13436652       0.73956698       0.46166583      -0.43074023       0.73956698       0.46166583      -0.43074023
H       -0.11840541      -0.58967801      -2.47812231        0      -0.19135505       0.16493608      -0.14272564       0.14114665       0.96129062       0.23846017       0.14114665       0.96129062       0.23846017
H       -0.64376042       1.16509647      -2.54687817        0      -0.15892955       0.07668295      -0.30424704       1.64724657      -1.04098161       0.80069851       1.64724657      -1.04098161       0.80069851
12
Properties=species:S:1:pos:R:3:molID:I:1:momenta:R:3:force_mace:R:3:forces:R:3 Nmols=1 Comp=DMC(1) energy_mace=-589.4496143378091 energy=-589.4496143378091 free_energy=-589.4496143378091 stress="0.0 0.0 0.0 0.0 0.0 0.0 0.0 0.0 0.0" pbc="F F F"
C       -0.11950077      -0.11340160      -0.02443170        0      -1.78073063       0.05595601       0.00052961       0.19036373       0.45334462       0.28828860       0.19036373       0.45334462       0.28828860
O       -1.25556657      -0.50162335      -0.06999479        0      -1.25147959       1.14185381      -0.20131774       0.63712017       0.18622633      -0.79758089       0.63712017       0.18622633      -0.79758089
O        0.61135722      -0.13629142       1.13628674        0       1.70590672      -0.86246703      -0.30127529       0.06030596       0.49937577      -1.29558867       0.06030596       0.49937577      -1.29558867
O        0.63916692       0.51064811      -0.95436388        0      -0.50218096      -1.08054213       1.53283158       0.23219135      -0.59819831       0.92497611       0.23219135      -0.59819831       0.92497611
C       -0.20705131      -0.27963948       2.25214048        0       0.72597693       0.35683367      -0.59916428       0.83378118       0.04117621       3.23776619       0.83378118       0.04117621       3.23776619
C        0.35863572       0.49575877      -2.37146993        0       0.91881018       0.01623346      -1.37178630      -3.77473316       0.83642260       2.21359322      -3.77473316       0.83642260       2.21359322
H        0.38188602      -0.24402997       3.28505124        0      -0.29966526      -0.35111858       0.21412204      -0.92354988       0.17380285      -2.56876871      -0.92354988       0.17380285      -2.56876871
H       -1.00029905       0.48205401       2.30079840        0      -0.40792784       0.29619305      -0.05572489       0.31042648      -0.19955639      -0.26925796       0.31042648      -0.19955639      -0.26925796
H       -0.61565793      -1.27151167       2.21405997        0       0.42451063      -0.10724611       0.48303271      -0.57330143      -0.52967152       0.07414841      -0.57330143      -0.52967152       0.07414841
H        1.24793887       0.86596574      -2.79551098        0       0.45600726      -0.05490499       0.32801360       0.92294618      -0.13163589      -0.91933438       0.92294618      -0.13163589      -0.91933438
H       -0.09685359      -0.51877564      -2.57580570        0       0.12846861       0.04647213      -0.12215311       0.68424060       1.20729112      -0.28370340       0.68424060       1.20729112      -0.28370340
H       -0.45120670       1.35628336      -2.43554530        0      -0.11769604       0.54273671       0.09289206       1.40020881      -1.93857739      -0.60453852       1.40020881      -1.93857739      -0.60453852
12
Properties=species:S:1:pos:R:3:molID:I:1:momenta:R:3:force_mace:R:3:forces:R:3 Nmols=1 Comp=DMC(1) energy_mace=-589.1401250640702 energy=-589.1401250640702 free_energy=-589.1401250640702 stress="0.0 0.0 0.0 0.0 0.0 0.0 0.0 0.0 0.0" pbc="F F F"
C       -0.17065434      -0.12021598      -0.01011059        0       0.66128210      -0.60981642       0.41219141       0.19957552      -0.29880765       0.02127263       0.19957552      -0.29880765       0.02127263
O       -1.33083398      -0.43947462      -0.11903093        0      -0.79744753       1.26414376      -1.20958407       1.49114582       0.15243675       0.37217020       1.49114582       0.15243675       0.37217020
O        0.66873435      -0.15948955       1.10967635        0      -0.74358371      -0.09546479       0.04915085      -2.73433731      -0.27979787       0.06293461      -2.73433731      -0.27979787       0.06293461
O        0.60380942       0.43512715      -0.89667567        0      -0.66342099      -0.74291117       0.11145735       0.55461895       0.93726393      -2.32499575       0.55461895       0.93726393      -2.32499575
C       -0.19565628      -0.26503078       2.27847491        0       0.78952382      -0.83053402       0.86917603       2.43180890      -0.16209663       0.81977737       2.43180890      -0.16209663       0.81977737
C        0.42499570       0.54682325      -2.35265854        0       1.12275300      -0.04335848       1.27293981      -3.58888315      -0.29066089      -0.06340003      -3.58888315      -0.29066089      -0.06340003
H        0.37215183      -0.18582767       3.28165719        0       0.27451596       0.59455284      -0.05398435      -0.59665383       0.64035104      -1.77894365      -0.59665383       0.64035104      -1.77894365
H       -0.98341365       0.45794569       2.10700590        0      -0.35619423       0.28781844      -0.22733732      -0.52073466       0.16195905       1.05352977      -0.52073466       0.16195905       1.05352977
H       -0.49949615      -1.29186525       2.32033111        0      -0.21295414       0.08743721      -0.38275616      -0.89977146      -0.56331068      -0.28394977      -0.89977146      -0.56331068      -0.28394977
H        1.39276242       0.59879189      -2.70947330        0       0.21213215      -0.35740257      -0.23605883       1.77372334       0.58270150      -0.59365488       1.77372334       0.58270150      -0.59365488
H       -0.00446411      -0.38174941      -2.83212453        0      -0.01397818       0.04689674      -0.19168979       0.21535024       0.80314122       1.22644402       0.21535024       0.80314122       1.22644402
H       -0.27541923       1.41043908      -2.72440948        0      -0.27262825       0.39863845      -0.41350492       1.67415763      -1.68317975       1.48881548       1.67415763      -1.68317975       1.48881548
12
Properties=species:S:1:pos:R:3:molID:I:1:momenta:R:3:force_mace:R:3:forces:R:3 Nmols=1 Comp=DMC(1) energy_mace=-589.2111883323529 energy=-589.2111883323529 free_energy=-589.2111883323529 stress="0.0 0.0 0.0 0.0 0.0 0.0 0.0 0.0 0.0" pbc="F F F"
C       -0.15104173      -0.18495779      -0.01097934        0      -0.02662619      -0.29909110      -0.43089826       1.37189384       2.34054487      -0.78833922       1.37189384       2.34054487      -0.78833922
O       -1.30173122      -0.35405947      -0.16095266        0       0.77815113       1.32944891      -0.30631467      -1.78203029      -1.24544098       0.09078766      -1.78203029      -1.24544098       0.09078766
O        0.58317263      -0.15879622       1.10958006        0      -1.54918757       0.22614328      -0.15160459      -0.57972040      -0.77977470       0.04137501      -0.57972040      -0.77977470       0.04137501
O        0.61555108       0.45030466      -0.92287936        0       1.00170706       0.55782983       0.36446406       1.69373462       0.10930117       1.05902182       1.69373462       0.10930117       1.05902182
C       -0.19378867      -0.28844840       2.29907166        0      -0.38528022      -0.20803836      -0.43399607       0.47812940       0.64562272       0.35784614       0.47812940       0.64562272       0.35784614
C        0.46296111       0.48003240      -2.32012562        0       0.48610033      -1.97225874       0.02513383      -5.95389944       0.92554060       1.85064770      -5.95389944       0.92554060       1.85064770
H        0.49053012       0.17486210       3.06157813        0       0.13412273      -0.06768109       0.00061779      -0.57022345      -1.21088770      -0.08876809      -0.57022345      -1.21088770      -0.08876809
H       -1.05445851       0.36579578       2.31722886        0      -0.41873869       0.15043753       0.33228287      -0.38701787       0.67331834      -0.45507974      -0.38701787       0.67331834      -0.45507974
H       -0.68701110      -1.28103003       2.29169153        0       0.30222975      -0.04098141       0.28148560       0.86165905      -0.05944413       0.41035420       0.86165905      -0.05944413       0.41035420
H        1.36758510       0.42807403      -2.72555752        0      -0.13035988      -0.14131714      -0.10791512       3.65263609      -0.06283988      -1.75297925       3.65263609      -0.06283988      -1.75297925
H       -0.14346939      -0.43751455      -2.54576025        0      -0.26691040      -0.27689180       0.35945731       0.23638071       0.98298832      -0.47229981       0.23638071       0.98298832      -0.47229981
H       -0.06157833       1.51796220      -2.50248500        0       0.07479195       0.74240009       0.06728725       0.97845773      -2.31892862      -0.25256642       0.97845773      -2.31892862      -0.25256642
12
Properties=species:S:1:pos:R:3:molID:I:1:momenta:R:3:force_mace:R:3:forces:R:3 Nmols=1 Comp=DMC(1) energy_mace=-589.2662214600986 energy=-589.2662214600986 free_energy=-589.2662214600986 stress="0.0 0.0 0.0 0.0 0.0 0.0 0.0 0.0 0.0" pbc="F F F"
C       -0.11604456      -0.09331860      -0.06733983        0      -0.05481713       1.78731891      -0.00650143      -3.19607946       0.25750684       1.82222704      -3.19607946       0.25750684       1.82222704
O       -1.31951050      -0.31314543      -0.16868642        0      -0.24934262       0.34221141      -0.51161723       1.98782216       0.09711203      -0.71156679       1.98782216       0.09711203      -0.71156679
O        0.49434317      -0.18032675       1.11003963        0      -1.01452329      -0.45384348      -0.09875965       1.71308287      -0.30960649      -0.92541939       1.71308287      -0.30960649      -0.92541939
O        0.72919751       0.46366899      -0.88290562        0       1.96610760      -0.03761222       0.38970762       0.14785067      -0.08823328      -1.61477121       0.14785067      -0.08823328      -1.61477121
C       -0.23508716      -0.26673920       2.27075720        0      -0.15281531      -0.39164300       0.00909729       2.74752996      -3.13238123       2.12778843       2.74752996      -3.13238123       2.12778843
C        0.45267207       0.35959769      -2.29104185        0       0.46548569      -2.02657786       1.13708383      -3.55997821       1.78248482       1.74470664      -3.55997821       1.78248482       1.74470664
H        0.46373401      -0.10401522       3.10225934        0       0.02770238      -0.01875202       0.13100508      -0.06896034       1.17189503      -0.13420057      -0.06896034       1.17189503      -0.13420057
H       -1.02191291       0.38485061       2.25746950        0      -0.24323954       0.40529906      -0.37677830      -2.45940243       1.44208103       0.10041163      -2.45940243       1.44208103       0.10041163
H       -0.33636991      -1.33490021       2.57711725        0       0.19475043       0.12819447       0.00249935      -1.17803206       0.36430023      -0.86925237      -1.17803206       0.36430023      -0.86925237
H        1.35260876       0.26846621      -2.71148278        0      -0.26570579      -0.29038333       0.22177160       3.29847548      -1.11662795      -1.92797626       3.29847548      -1.11662795      -1.92797626
H       -0.37605069      -0.31457027      -2.51384531        0      -0.41021121      -0.04753397      -0.30789771       0.50289948      -0.66976176       0.13865979       0.50289948      -0.66976176       0.13865979
H        0.06107460       1.32626426      -2.64283029        0      -0.26339122       0.60332202      -0.58961045       0.06479187       0.20123074       0.24939305       0.06479187       0.20123074       0.24939305
12
Properties=species:S:1:pos:R:3:molID:I:1:momenta:R:3:force_mace:R:3:forces:R:3 Nmols=1 Comp=DMC(1) energy_mace=-589.1579236899024 energy=-589.1579236899024 free_energy=-589.1579236899024 stress="0.0 0.0 0.0 0.0 0.0 0.0 0.0 0.0 0.0" pbc="F F F"
C       -0.18267160       0.03766540      -0.01003660        0      -0.46001688       1.34793041       0.89540411       3.76796136       0.12910198      -1.03541706       3.76796136       0.12910198      -1.03541706
O       -1.28883538      -0.26127914      -0.18914990        0       0.27792529       1.11725516      -0.83299669      -3.31653240      -0.03573056      -1.28968822      -3.31653240      -0.03573056      -1.28968822
O        0.46026621      -0.23502095       1.08365390        0      -0.03398851      -0.60214382      -0.38122253       1.85074728       0.24122477       0.74456237       1.85074728       0.24122477       0.74456237
O        0.80972496       0.46920356      -0.93030323        0       0.61647133       0.48989562      -0.71771530      -1.72344303      -0.63437936       2.16009683      -1.72344303      -0.63437936       2.16009683
C       -0.24174591      -0.27322385       2.32729807        0      -0.06029221      -0.14032572       0.62464089       2.71441354      -2.68790122      -0.98689920       2.71441354      -2.68790122      -0.98689920
C        0.45464725       0.26355545      -2.25109834        0       1.36550098      -2.22280723       0.18473643      -0.47787317      -1.73669979      -0.13994919      -0.47787317      -1.73669979      -0.13994919
H        0.44053562       0.31253516       2.94952392        0      -0.02912019       0.50852276      -0.17665494      -0.19041346      -0.63895719       0.88045740      -0.19041346      -0.63895719       0.88045740
H       -1.10709444       0.19955835       2.22036487        0      -0.50652049      -0.40769342       0.29035845      -3.98138800       2.69393412      -0.00868302      -3.98138800       2.69393412      -0.00868302
H       -0.59363771      -1.34792116       2.38053859        0      -0.43113830       0.08062893      -0.04976413       0.89312334       0.59989758       1.05639817       0.89312334       0.59989758       1.05639817
H        1.26644174      -0.19557384      -2.76095384        0      -0.62849757      -0.32760277       0.03298220       1.12561948       0.08656948      -0.51806412       1.12561948       0.08656948      -0.51806412
H       -0.35667880      -0.46529370      -2.41834656        0      -0.10314279      -0.67684902       0.32289151      -0.21030784       0.25555838       0.36206849      -0.21030784       0.25555838       0.36206849
H        0.17226295       1.19728002      -2.60151489        0      -0.00718065       0.83318909      -0.19265999      -0.45190710       1.72738181      -1.22488244      -0.45190710       1.72738181      -1.22488244
12
Properties=species:S:1:pos:R:3:molID:I:1:momenta:R:3:force_mace:R:3:forces:R:3 Nmols=1 Comp=DMC(1) energy_mace=-589.2664166299011 energy=-589.2664166299011 free_energy=-589.2664166299011 stress="0.0 0.0 0.0 0.0 0.0 0.0 0.0 0.0 0.0" pbc="F F F"
C       -0.14328867       0.13211826      -0.01782027        0       0.40217187       0.20363584      -0.69444872      -0.67760566      -1.89852705      -0.04283963      -0.67760566      -1.89852705      -0.04283963
O       -1.31264222      -0.17960749      -0.24947826        0       0.26267183       1.38983129      -0.85920901       1.95235996       1.49916221       0.51477875       1.95235996       1.49916221       0.51477875
O        0.48480791      -0.25588493       1.09064745        0       0.87512619      -0.06960814       0.79057568      -0.73046230       0.67888145       1.77611204      -0.73046230       0.67888145       1.77611204
O        0.81949855       0.50864435      -0.92335915        0      -0.60745586       0.65114733       0.82251975      -1.38078750      -0.45068685       0.73182478      -1.38078750      -0.45068685       0.73182478
C       -0.28923569      -0.29313805       2.34659268        0      -1.31886952       0.13821467       0.32556195       2.27884602       0.21996952      -0.80995816       2.27884602       0.21996952      -0.80995816
C        0.46530792       0.10207436      -2.25467063        0       0.63624359      -2.36261617      -0.18175297       1.76358280      -1.65867827       1.85201395       1.76358280      -1.65867827       1.85201395
H        0.17943216       0.31495267       3.11663112        0      -0.22990572      -0.09700891       0.42883761       0.89752522      -0.25268919      -0.16578782       0.89752522      -0.25268919      -0.16578782
H       -1.21618725       0.12772292       2.29943688        0       0.26969185       0.13619861      -0.54903435      -2.68636168       1.38491780      -1.32783159      -2.68636168       1.38491780      -1.32783159
H       -0.47202449      -1.29309916       2.63676064        0       0.66642126      -0.22594962       0.42367349       0.49069611      -1.32965360       0.17452965       0.49069611      -1.32965360       0.17452965
H        1.26709830      -0.43461157      -2.77505609        0      -0.28123548       0.26347436       0.43360515       0.18116017       0.11764512       0.42221675       0.18116017       0.11764512       0.42221675
H       -0.35673316      -0.54861566      -2.16748922        0      -0.59079064      -0.14488479      -0.15713880      -1.21232339      -1.09947436      -1.16080812      -1.21232339      -1.09947436      -1.16080812
H        0.26471392       0.96014732      -2.74422054        0      -0.08406937       0.11756553      -0.78318979      -0.87662975       2.78913322      -1.96425061      -0.87662975       2.78913322      -1.96425061
12
Properties=species:S:1:pos:R:3:molID:I:1:momenta:R:3:force_mace:R:3:forces:R:3 Nmols=1 Comp=DMC(1) energy_mace=-588.2142920702984 energy=-588.2142920702984 free_energy=-588.2142920702984 stress="0.0 0.0 0.0 0.0 0.0 0.0 0.0 0.0 0.0" pbc="F F F"
C       -0.09139938       0.07465791      -0.01972260        0       1.08870405      -1.32481622       1.36397856       0.98388579      -0.65752180       1.83558394       0.98388579      -0.65752180       1.83558394
O       -1.22994319      -0.07687572      -0.28272670        0       1.14837183       1.21005761       0.19450196      -2.80057665      -0.55432687       0.41641330      -2.80057665      -0.55432687       0.41641330
O        0.52364634      -0.23031226       1.15923982        0       0.42230658       0.99108220       0.83366186      -0.40801684       0.74551926      -0.99209074      -0.40801684       0.74551926      -0.99209074
O        0.73031533       0.53114851      -0.88150926        0      -1.69032922       0.63366794      -0.59243099       0.99545764       0.05416369      -3.66947780       0.99545764       0.05416369      -3.66947780
C       -0.35519855      -0.32557880       2.30020237        0      -1.03100314      -0.66138767      -1.62161501       2.69957296       0.94342346      -1.37389319       2.69957296       0.94342346      -1.37389319
C        0.41578913       0.01824280      -2.26045975        0       0.20899809      -0.70931478      -0.12565807       6.81292763      -1.57094510       4.19070879       6.81292763      -1.57094510       4.19070879
H        0.04498816       0.21427890       3.12071572        0      -0.12124470       0.30779406      -0.16578679       0.16144932       1.49500670       0.61585751       0.16144932       1.49500670       0.61585751
H       -1.25766451       0.06603184       1.96256431        0       0.26901246      -0.47444865       0.42663175      -2.48287506       0.06100033       0.74476627      -2.48287506       0.06100033       0.74476627
H       -0.04564667      -1.23624126       2.64128024        0       0.00361796      -0.05659044      -0.34961781      -0.80275733      -2.91482846       0.73499723      -0.80275733      -2.91482846       0.73499723
H        1.43908825      -0.44333280      -2.54652832        0      -0.43501651       0.17110618       0.30112732      -1.75526090       0.10475169       0.35499828      -1.75526090       0.10475169       0.35499828
H       -0.42599184      -0.48621141      -2.44923960        0      -0.02464626      -0.13543530      -0.16523210      -2.62297133      -2.30354199       0.43362928      -2.62297133      -2.30354199       0.43362928
H        0.24190586       0.66859483      -2.94889386        0       0.16122887       0.04828508      -0.09956066      -0.78083524       4.59729907      -3.29149289      -0.78083524       4.59729907      -3.29149289
12
Properties=species:S:1:pos:R:3:molID:I:1:momenta:R:3:force_mace:R:3:forces:R:3 Nmols=1 Comp=DMC(1) energy_mace=-588.404691750051 energy=-588.404691750051 free_energy=-588.404691750051 stress="0.0 0.0 0.0 0.0 0.0 0.0 0.0 0.0 0.0" pbc="F F F"
C       -0.03565546      -0.02381796       0.04754532        0      -0.20429802      -0.40404177      -1.16593013      -3.49050035       2.10808356      -3.23027023      -3.49050035       2.10808356      -3.23027023
O       -1.24312752      -0.05429716      -0.25166325        0      -0.36829700      -0.61003047       0.41618113       1.14308880      -1.12150946       1.77846879       1.14308880      -1.12150946       1.77846879
O        0.54639255      -0.14141198       1.18483427        0       0.71576635       1.28041801       1.25114911       0.25108880      -1.18866724      -0.19114995       0.25108880      -1.18866724      -0.19114995
O        0.65138939       0.55013578      -0.95523830        0      -0.99317553       0.20555499      -1.39085076       1.89575438      -0.03202795       1.26300721       1.89575438      -0.03202795       1.26300721
C       -0.36076761      -0.37586484       2.22945921        0      -0.87352393      -0.68946691       0.08547092      -0.07286537       0.75414528       0.12078657      -0.07286537       0.75414528       0.12078657
C        0.48026732       0.02495850      -2.24555111        0       1.81437757       0.19157526       0.50417160       3.64543993      -3.61560899       2.58899738       3.64543993      -3.61560899       2.58899738