12
Properties=species:S:1:pos:R:3:molID:I:1:momenta:R:3:force_mace:R:3:forces:R:3 Nmols=1 Comp=DMC(1) energy_mace=-68.54700469970703 energy=-68.54700469970703 free_energy=-68.54700469970703 stress="0.0 0.0 0.0 0.0 0.0 0.0 0.0 0.0 0.0" pbc="F F F"
C       -0.06354920       0.02615914       0.03273994        0      -0.07654430       0.21784893      -0.50328451       0.20800683      -0.80470431      -2.21420622       0.20800683      -0.80470431      -2.21420622
O       -1.09745824      -0.56171083      -0.33384407        0       0.70428895       0.86124862      -0.05161958      -0.08898413       0.30803242       1.76163578      -0.08898413       0.30803242       1.76163578
O        0.59339279       0.04178514       1.16893291        0       0.49965315      -0.04573091       0.45036155      -0.17448026       0.38400626       0.82689881      -0.17448026       0.38400626       0.82689881
O        0.70731479       0.58054012      -0.92796504        0      -0.68784632       0.08347597      -0.54135281       0.54476178       0.21378478      -0.63014340       0.54476178       0.21378478      -0.63014340
C       -0.18480919      -0.38314587       2.27627182        0      -0.27983202       0.12812280      -0.02198612      -0.67091447       1.09304047       1.90063596      -0.67091447       1.09304047       1.90063596
C        0.11790480       0.31317315      -2.18905210        0       0.41780536      -0.43914845       0.48466789      -2.44765425       0.72693151      -1.57496142      -2.44765425       0.72693151      -1.57496142
H        0.50081283      -0.52887988       3.16355896        0      -0.10953877      -0.14342559       0.12841976      -0.87664270      -0.17105348      -1.26068282      -0.87664270      -0.17105348      -1.26068282
H       -0.99130619       0.37122315       2.57026887        0       0.06040955      -0.29083101       0.23537048       1.07122648      -0.36864197      -0.31088519       1.07122648      -0.36864197      -0.31088519
H       -0.79898220      -1.19689691       1.93909299        0      -0.14256367      -0.15436541       0.16637006       0.01956815      -1.05348992       0.20949073       0.01956815      -1.05348992       0.20949073
H        0.82173383       0.39293513      -3.04121518        0      -0.10212216       0.02056850       0.00831726       0.02335033      -0.04364163       0.83682275       0.02335033      -0.04364163       0.83682275
H       -0.51975018      -0.63449883      -2.23208618        0      -0.09350674      -0.02796620      -0.30231415       1.14253879       0.99695140       0.08133510       1.14253879       0.99695140       0.08133510
H       -0.68493521       1.15580308      -2.35394812        0      -0.19020303      -0.20979725      -0.05294983       1.24922407      -1.28121567       0.37406009       1.24922407      -1.28121567       0.37406009
12
Properties=species:S:1:pos:R:3:molID:I:1:momenta:R:3:force_mace:R:3:forces:R:3 Nmols=1 Comp=DMC(1) energy_mace=-68.55799102783203 energy=-68.55799102783203 free_energy=-68.55799102783203 stress="0.0 0.0 0.0 0.0 0.0 0.0 0.0 0.0 0.0" pbc="F F F"
C       -0.04200267      -0.01058754      -0.03646760        0       1.02626149      -0.57592613      -0.79733146       0.73960388       0.31220061       1.24935734       0.73960388       0.31220061       1.24935734
O       -1.12317557      -0.52221767      -0.31200857        0      -1.12144639       1.24786466       0.78847777       0.55690366       0.24318343       0.79391569       0.55690366       0.24318343       0.79391569
O        0.59993738       0.05804713       1.20991427        0      -0.34637696       0.19902813       0.54252239      -1.25887477       0.02263865      -1.74323130      -1.25887477       0.02263865      -1.74323130
O        0.72273709       0.59877188      -0.97653241        0       0.92617375       0.10386144      -0.72445651      -0.25771254      -0.99743342       1.07421255      -0.25771254      -0.99743342       1.07421255
C       -0.21918846      -0.38108328       2.30028054        0      -0.68138816      -0.22074806       0.99370943       0.71613359      -0.39034888       1.54251206       0.71613359      -0.39034888       1.54251206
C        0.09138265       0.28123174      -2.18765686        0      -0.24405462      -0.34880426      -0.88850948      -1.54545450       0.28145665      -1.95402884      -1.54545450       0.28145665      -1.95402884
H        0.53499777      -0.71235834       3.05391331        0       0.17881555      -0.04121062      -0.29553563      -0.39210001       0.60630387      -0.31596011      -0.39210001       0.60630387      -0.31596011
H       -0.84410955       0.45635946       2.74830650        0       0.21417872       0.04573251      -0.07773113       0.38869673      -1.13022542      -0.77923387       0.38869673      -1.13022542      -0.77923387
H       -0.68364047      -1.35753414       2.07262050        0      -0.05621056      -0.21653788       0.04075006      -0.60386109       0.66308421      -0.19951187      -0.60386109       0.66308421      -0.19951187
H        0.92725743       0.38235689      -2.90007519        0       0.10538168       0.03638276       0.23517056      -0.70358872       0.40051028      -0.06243098      -0.70358872       0.40051028      -0.06243098
H       -0.40092662      -0.75294765      -2.36332341        0       0.23888466      -0.45099179       0.15480398       0.79680824       1.38702512       0.69569099       0.79680824       1.38702512       0.69569099
H       -0.77817045       1.06967893      -2.26433744        0      -0.24021910       0.22134927       0.02813004       1.56344533      -1.39839530      -0.30129170       1.56344533      -1.39839530      -0.30129170
12
Properties=species:S:1:pos:R:3:molID:I:1:momenta:R:3:force_mace:R:3:forces:R:3 Nmols=1 Comp=DMC(1) energy_mace=-68.57315063476562 energy=-68.57315063476562 free_energy=-68.57315063476562 stress="0.0 0.0 0.0 0.0 0.0 0.0 0.0 0.0 0.0" pbc="F F F"
C        0.02770939      -0.04146139      -0.03586229        0      -0.00384787       0.08643345       0.80167875      -1.17469597       1.28421068       0.89143121      -1.17469597       1.28421068       0.89143121
O       -1.12631827      -0.42919995      -0.26749449        0       0.80521603       1.87331069       0.55974156       0.12635744      -0.58482486       0.05466519       0.12635744      -0.58482486       0.05466519
O        0.55512506       0.07717335       1.16919806        0      -1.51127680       0.46466592      -1.32758458       0.05675876      -0.46486974       1.04638624       0.05675876      -0.46486974       1.04638624
O        0.75430897       0.57186203      -0.99113082        0       0.13183622      -0.85584180       0.13964692       0.02073228      -0.17234880      -0.80758196       0.02073228      -0.17234880      -0.80758196
C       -0.21434764      -0.43559139       2.34508740        0       0.87326462      -0.49878866       0.28426650      -0.07271975       1.73584437       0.01469719      -0.07271975       1.73584437       0.01469719
C        0.05770315       0.24537169      -2.24502959        0       1.26614281      -0.13482990       0.04397313       0.22281313       1.49483097       1.31514215       0.22281313       1.49483097       1.31514215
H        0.60132695      -0.69412984       3.04632875        0      -0.22313161      -0.16862597       0.09565695      -0.76586771      -0.22825214      -0.35861024      -0.76586771      -0.22825214      -0.35861024
H       -0.84673610       0.41095147       2.78684570        0       0.00304556      -0.32570403      -0.10814838       0.99684900      -0.82509255      -0.59862232       0.99684900      -0.82509255      -0.59862232
H       -0.94788618      -1.19147028       2.05702405        0      -0.25476032       0.01073616      -0.02667843       0.42602292      -0.39160532       0.02016592       0.42602292      -0.39160532       0.02016592
H        0.82095134       0.50618017      -2.99898430        0      -0.65034598      -0.04742667      -0.32209830      -0.63904345      -0.46865481       0.13017097      -0.63904345      -0.46865481       0.13017097
H       -0.11073778      -0.80052010      -1.98082536        0       0.23269616      -0.37796198       0.18262885      -0.41509765      -0.21992636      -1.64080405      -0.41509765      -0.21992636      -1.64080405
H       -0.89015028       0.89088259      -2.31177171        0      -0.66883873      -0.02596733      -0.32308293       1.21789110      -1.15931153      -0.06704046       1.21789110      -1.15931153      -0.06704046
12
Properties=species:S:1:pos:R:3:molID:I:1:momenta:R:3:force_mace:R:3:forces:R:3 Nmols=1 Comp=DMC(1) energy_mace=-68.39600372314453 energy=-68.39600372314453 free_energy=-68.39600372314453 stress="0.0 0.0 0.0 0.0 0.0 0.0 0.0 0.0 0.0" pbc="F F F"
C        0.00058892       0.01819721       0.00673623        0      -0.63398993       1.26082577      -0.56316122      -0.98026788       0.84734714      -2.20488214      -0.98026788       0.84734714      -2.20488214
O       -1.14111213      -0.32638595      -0.28147003        0      -1.32495621       1.13517017      -0.89367394      -0.65338254      -0.70698810      -0.12912981      -0.65338254      -0.70698810      -0.12912981
O        0.49284678       0.09778567       1.17127779        0      -0.10796716       0.66621374       1.69825032       1.90680885      -0.33996677       2.51514745       1.90680885      -0.33996677       2.51514745
O        0.79942993       0.53394033      -1.01518766        0       1.08155171      -0.62315945      -0.72563981      -0.42041010      -0.36397457      -0.01965165      -0.42041010      -0.36397457      -0.01965165
C       -0.18025544      -0.48725467       2.33719084        0       0.00486840      -0.74133915      -0.05391788       0.33464026       1.95937955       1.79696560       0.33464026       1.95937955       1.79696560
C        0.09504153       0.21148722      -2.20891426        0       0.95439616      -1.49618572       0.06579102      -0.58130330      -0.84990919      -0.14960206      -0.58130330      -0.84990919      -0.14960206
H        0.53295219      -0.91727385       3.10989578        0      -0.07195282       0.06642301      -0.19766119      -0.32837522       0.96638685      -1.10304511      -0.32837522       0.96638685      -1.10304511
H       -0.75318216       0.41342635       2.79117362        0       0.24978054       0.15837561       0.16558025       0.75165582      -1.73949909      -0.56724769       0.75165582      -1.73949909      -0.56724769
H       -0.80179847      -1.31552291       2.11353363        0       0.23931540      -0.31292971      -0.14781361      -1.02488661      -0.62458408      -0.70250696      -1.02488661      -0.62458408      -0.70250696
H        0.62414061       0.37780577      -3.11984553        0       0.22466744       0.00819495       0.53441112       0.93620360       1.16208100      -0.43656790       0.93620360       1.16208100      -0.43656790
H       -0.01500531      -0.84552934      -2.29915731        0       0.00812280      -0.07139612      -0.29204705       0.21015923      -1.38693285       0.59388828       0.21015923      -1.38693285       0.59388828
H       -0.96752981       0.41419576      -2.31558338        0      -0.62383612      -0.05019326       0.40988185      -0.15084167       1.07665992       0.40663216      -0.15084167       1.07665992       0.40663216
12
Properties=species:S:1:pos:R:3:molID:I:1:momenta:R:3:force_mace:R:3:forces:R:3 Nmols=1 Comp=DMC(1) energy_mace=-67.73481750488281 energy=-67.73481750488281 free_energy=-67.73481750488281 stress="0.0 0.0 0.0 0.0 0.0 0.0 0.0 0.0 0.0" pbc="F F F"
C       -0.07153630       0.11065153      -0.02013800        0      -0.89884861       0.73951536       0.42505390       0.26912984      -0.80562282       0.53466809       0.26912984      -0.80562282       0.53466809
O       -1.21534540      -0.28063840      -0.34712092        0      -0.78681853       0.37176289      -1.13191686       1.90584111       0.53738362       1.33900928       1.90584111       0.53738362       1.33900928
O        0.50914029       0.11212011       1.27124779        0       0.26637260       0.10313226       0.73551818      -0.54091674       1.21485448      -3.79023457      -0.54091674       1.21485448      -3.79023457
O        0.82261090       0.46119829      -1.03393079        0      -0.47221698      -1.66193641       0.73413001      -0.81140888      -0.81369174       3.11428070      -0.81140888      -0.81369174       3.11428070
C       -0.17357920      -0.53549664       2.34735668        0       1.18590410       0.09828109      -0.18131979       2.43409586       2.57887363       0.73381764       2.43409586       2.57887363       0.73381764
C        0.11475766       0.12195344      -2.22354003        0       1.70794220      -0.55745968      -0.53539210       2.97630930       3.17173743      -0.07020694       2.97630930       3.17173743      -0.07020694
H        0.78368609      -0.64230077       2.94745632        0       0.05750163       0.30480654      -0.24973097      -1.50897217      -1.16615915      -0.03320667      -1.50897217      -1.16615915      -0.03320667
H       -0.67585429       0.30641400       2.91513126        0      -0.46965042      -0.15211457       0.18450425      -0.50694984      -1.38756776      -0.64069128      -0.50694984      -1.38756776      -0.64069128
H       -0.61653207      -1.35046314       1.82233428        0      -0.16047551      -0.18570650      -0.20926827      -0.95836532      -0.94133931       0.87483412      -0.95836532      -0.94133931       0.87483412
H        0.81695099       0.72600436      -2.82608636        0      -0.64900759       0.08819841       0.31873849      -0.42068881      -1.06488013      -1.04464698      -0.42068881      -1.06488013      -1.04464698
H        0.12458056      -0.92729879      -2.34033238        0      -0.01197856       0.05886184      -0.02185966      -0.79495674      -1.01861012      -0.38594636      -0.79495674      -1.01861012      -0.38594636
H       -0.70926852       0.76631592      -2.09859097        0       0.23127580       0.79265864      -0.06845739      -2.04311800      -0.30497795      -0.63167703      -2.04311800      -0.30497795      -0.63167703
12
Properties=species:S:1:pos:R:3:molID:I:1:momenta:R:3:force_mace:R:3:forces:R:3 Nmols=1 Comp=DMC(1) energy_mace=-67.60993194580078 energy=-67.60993194580078 free_energy=-67.60993194580078 stress="0.0 0.0 0.0 0.0 0.0 0.0 0.0 0.0 0.0" pbc="F F F"
C       -0.11696777       0.10768425      -0.00753633        0       0.44353056      -0.42755327      -0.07922905       1.94938779      -0.47825778       0.36157021       1.94938779      -0.47825778       0.36157021
O       -1.22574739      -0.23057248      -0.34629384        0      -0.39687112       0.76303275       0.82890338      -1.72075820      -0.35311055       0.93999100      -1.72075820      -0.35311055       0.93999100
O        0.49493821       0.16431284       1.22831918        0      -1.02749150       1.45702158      -1.66623530      -1.07246828       0.28272864      -0.40519530      -1.07246828       0.28272864      -0.40519530
O        0.80718640       0.34625919      -0.94203577        0      -0.20972154      -1.93104061       1.79347591       0.59063137       0.48633513      -1.39021015       0.59063137       0.48633513      -1.39021015
C       -0.10080438      -0.49528294       2.32623149        0       1.04818496      -0.37655283       0.04796265       0.74843186      -0.64327192       2.70148540       0.74843186      -0.64327192       2.70148540
C        0.20939491       0.17222429      -2.24285951        0       1.01351452       1.51578151      -1.12378119       2.95500231       2.29278040      -2.32609653       2.95500231       2.29278040      -2.32609653
H        0.71854674      -0.87560722       3.05517641        0      -0.41244544      -0.18603871       0.12586010      -1.30344224       1.38660514      -1.05757356      -1.30344224       1.38660514      -1.05757356
H       -1.08217490      -0.20880773       2.81007864        0      -0.35431892      -0.11934591      -0.11036415       1.10148716       1.46912777      -0.20782584       1.10148716       1.46912777      -0.20782584
H       -0.55544210      -1.40431891       2.11108855        0       0.17719114      -0.30933376       0.25367823      -0.41540059      -2.39863396      -1.67223382      -0.41540059      -2.39863396      -1.67223382
H        0.74832793       0.65179196      -3.21551177        0       0.22109034      -0.59481199       0.09937130      -0.46558034      -1.12424040       2.78547287      -0.46558034      -1.12424040       2.78547287
H       -0.12024767      -0.77362380      -2.48972198        0      -0.13899046       0.59874750      -0.11874905       0.14406037      -2.90930796      -0.11838973       0.14406037      -2.90930796      -0.11838973
H       -0.72387168       0.58907903      -2.28522646        0      -0.36367233      -0.38990636      -0.05089311      -2.51135135       1.98924541       0.38900629      -2.51135135       1.98924541       0.38900629
12
Properties=species:S:1:pos:R:3:molID:I:1:momenta:R:3:force_mace:R:3:forces:R:3 Nmols=1 Comp=DMC(1) energy_mace=-67.87155151367188 energy=-67.87155151367188 free_energy=-67.87155151367188 stress="0.0 0.0 0.0 0.0 0.0 0.0 0.0 0.0 0.0" pbc="F F F"
C       -0.09211457       0.02809630      -0.01715488        0      -0.41078767      -1.19954172      -0.33983425      -1.72728789       0.47177982      -0.25557306      -1.72728789       0.47177982      -0.25557306
O       -1.27945384      -0.17113358      -0.29142227        0      -0.58594035       1.12219818       0.88849208       0.06163001      -0.38774914       0.05648485       0.06163001      -0.38774914       0.05648485
O        0.42865322       0.24197755       1.16198987        0      -0.78992014       0.07413234       0.22315069       0.67257333      -1.06566310       3.22572851       0.67257333      -1.06566310       3.22572851
O        0.82775510       0.22980498      -0.92736730        0       1.06141927      -1.71253414      -1.08539033       1.01707363       0.86925983      -2.28988814       1.01707363       0.86925983      -2.28988814
C       -0.13296790      -0.58260439       2.34652725        0      -0.75877008      -1.38548082       0.12855596       2.78676176       2.07285118       1.23250389       2.78676176       2.07285118       1.23250389
C        0.26143738       0.28455507      -2.28257525        0       0.01770589       0.22568935       0.23594400       3.70455813      -4.03083754       0.25034362       3.70455813      -4.03083754       0.25034362
H        0.56985643      -0.58491691       3.33096541        0      -0.00119339       0.54718545       0.00631242      -1.24314547       0.13278684      -2.56090641      -1.24314547       0.13278684      -2.56090641
H       -0.97150962       0.02450811       2.58674847        0      -0.11900272       0.44191579      -0.21627373      -1.20527816       0.01524660       0.31996119      -1.20527816       0.01524660       0.31996119
H       -0.27641625      -1.56492596       1.99417435        0       0.46013142       0.25727920      -0.27748753      -0.58112228      -1.33872628      -0.27136427      -0.58112228      -1.33872628      -0.27136427
H        1.26949047       0.35838233      -2.94859401        0       0.03754251       0.18517431       0.39084232      -3.08951402       0.44304511       1.27820635      -3.08951402       0.44304511       1.27820635
H       -0.02828162      -0.84324286      -2.32254037        0       0.45546236       0.58707922       0.33934645       0.14490055       1.79298627      -0.53802496       0.14490055       1.79298627      -0.53802496
H       -0.63007069       0.85524856      -2.35749941        0       0.63335290       0.85690276      -0.29365832      -0.54114938       1.02502048      -0.44747207      -0.54114938       1.02502048      -0.44747207
12
Properties=species:S:1:pos:R:3:molID:I:1:momenta:R:3:force_mace:R:3:forces:R:3 Nmols=1 Comp=DMC(1) energy_mace=-67.4686050415039 energy=-67.4686050415039 free_energy=-67.4686050415039 stress="0.0 0.0 0.0 0.0 0.0 0.0 0.0 0.0 0.0" pbc="F F F"
C       -0.14372793      -0.02225756      -0.02656234        0      -0.11025000       0.17176576       0.31629304       1.95737219       1.69215906       0.85482961       1.95737219       1.69215906       0.85482961
O       -1.32636488      -0.09042613      -0.21154624        0      -0.85285689       0.64448069       1.07870367      -0.91045713      -0.74209917      -0.78153050      -0.91045713      -0.74209917      -0.78153050
O        0.38914269       0.21746107       1.21611578        0      -0.62744890      -0.89233315       1.04960292       0.27145556      -0.51614934      -0.79401922       0.27145556      -0.51614934      -0.79401922
O        0.88150346       0.14481767      -0.97851987        0       0.34699193      -1.41000574      -0.40019831      -1.31663156       0.27355576       1.24035215      -1.31663156       0.27355576       1.24035215
C       -0.16994936      -0.59104643       2.30212539        0      -0.15370264       0.92257527      -1.82117486       2.38938570       3.33702350       0.44014001       2.38938570       3.33702350       0.44014001
C        0.35540814       0.30073667      -2.26899284        0       1.82427289       0.20726743      -0.30976226       1.63182640      -1.58217597      -2.42614460       1.63182640      -1.58217597      -2.42614460
H        0.59077458      -0.15367008       3.11404633        0       0.21202253       0.08096178       0.08944721      -2.05225849      -2.03073263      -1.26054811      -2.05225849      -2.03073263      -1.26054811
H       -1.16906743      -0.20373191       2.46202584        0      -0.30791940      -0.62438637      -0.03302450      -0.42175618      -0.25988588       0.30311221      -0.42175618      -0.25988588       0.30311221
H       -0.09664919      -1.58766552       1.91403557        0      -0.10026173       0.17630062       0.63741451       0.03403327      -1.04243565       0.69823503       0.03403327      -1.04243565       0.69823503
H        1.32704164       0.58708715      -2.90992713        0       0.17680496       0.13721964      -0.18629925      -1.75830305      -1.61366808       1.07112503      -1.75830305      -1.61366808       1.07112503
H       -0.18573355      -0.81403656      -2.46313971        0      -0.51702577       0.83954863      -0.55274763       1.11681700       3.40151453      -0.30192345       1.11681700       3.40151453      -0.30192345
H       -0.11058298       1.28144486      -2.55714200        0       0.10937294      -0.25339463       0.13174530      -0.94148350      -0.91710591       0.95637202      -0.94148350      -0.91710591       0.95637202
12
Properties=species:S:1:pos:R:3:molID:I:1:momenta:R:3:force_mace:R:3:forces:R:3 Nmols=1 Comp=DMC(1) energy_mace=-66.61795806884766 energy=-66.61795806884766 free_energy=-66.61795806884766 stress="0.0 0.0 0.0 0.0 0.0 0.0 0.0 0.0 0.0" pbc="F F F"
C       -0.13462785       0.02855381      -0.00164028        0      -0.26659513       0.73624723      -0.12293479       0.23450077       0.00649016      -0.58651292       0.23450077       0.00649016      -0.58651292
O       -1.32776529      -0.07315520      -0.15298435        0       0.69366117      -0.35362981       0.87581869      -0.47126409      -0.14621779      -0.91609669      -0.47126409      -0.14621779      -0.91609669
O        0.39121168       0.14766902       1.22340588        0       1.27490901      -0.59822449      -0.72891113       1.86097240       0.51011378      -0.92007673       1.86097240       0.51011378      -0.92007673
O        0.86383465       0.05644221      -0.95238224        0      -0.80448863      -1.65806784       0.74805324      -0.84931183      -0.28785199      -1.07784283      -0.84931183      -0.28785199      -1.07784283
C       -0.22055291      -0.52469325       2.21182193        0      -1.21438425      -0.83659892       0.56234583       1.90151453      -1.07168114       6.02192783       1.90151453      -1.07168114       6.02192783
C        0.49019656       0.34136539      -2.34833900        0       0.24763328       1.07613087      -1.42254816      -1.59313571       2.20981717      -0.97689617      -1.59313571       2.20981717      -0.97689617
H        0.24525722      -0.23761732       3.28556737        0      -0.28512353       0.26035635       0.43927083      -0.64853877       0.13351291      -2.38558412      -0.64853877       0.13351291      -2.38558412
H       -1.22838931      -0.46189465       2.38475240        0      -0.20494291       0.31679304      -0.30057654      -2.97996330       1.16822886      -0.55797994      -2.97996330       1.16822886      -0.55797994
H       -0.12689869      -1.59345062       2.41364291        0       0.15721592       0.67992063       0.02881942       0.79606992      -0.67097950      -1.46236229       0.79606992      -0.67097950      -1.46236229
H        1.39440384       0.32664364      -3.11430983        0       0.12220713      -0.23213834      -0.29063940      -1.96023297       0.30489284       2.04325461      -1.96023297       0.30489284       2.04325461
H       -0.55905009       0.14748619      -2.94981670        0      -0.06257965       0.27474134      -0.12549745       1.45267582      -1.38319266       1.27639794       1.45267582      -1.38319266       1.27639794
H       -0.23085662       1.31211072      -2.16403316        0       0.34248756       0.33446982       0.33679940       2.25671339      -0.77313304      -0.45822898       2.25671339      -0.77313304      -0.45822898
12
Properties=species:S:1:pos:R:3:molID:I:1:momenta:R:3:force_mace:R:3:forces:R:3 Nmols=1 Comp=DMC(1) energy_mace=-67.07708740234375 energy=-67.07708740234375 free_energy=-67.07708740234375 stress="0.0 0.0 0.0 0.0 0.0 0.0 0.0 0.0 0.0" pbc="F F F"
C       -0.09511291       0.07555340      -0.01406174        0       1.01940286      -0.36404765       0.46833398      -1.06653345      -1.82943344       0.29616255      -1.06653345      -1.82943344       0.29616255
O       -1.32116120      -0.10758593      -0.12389661        0      -0.30123004      -0.80893071      -0.23984005      -0.00337410       0.68833351      -0.55522573      -0.00337410       0.68833351      -0.55522573
O        0.49003189       0.09438739       1.16847577        0       1.37610456      -1.20242780       0.57452882       0.05792880       0.12105906       2.37170029       0.05792880       0.12105906       2.37170029
O        0.81662130      -0.04083784      -0.96651565        0      -0.50360229      -0.99308194      -1.53025478       0.46720225       0.93806148      -2.10907793       0.46720225       0.93806148      -2.10907793
C       -0.35791672      -0.53588107       2.37435996        0      -2.11796545      -0.14122337       1.29372790       1.94016826       2.42259932      -1.47501290       1.94016826       2.42259932      -1.47501290
C        0.45586597       0.50776888      -2.41418004        0      -0.56307956       2.10922479       0.03348084       3.24066973      -1.04825926       0.97412896       3.24066973      -1.04825926       0.97412896
H       -0.17047684       0.21970217       3.26611437        0      -0.26777634       0.67790766       0.25297299      -0.00122461      -2.34074306      -1.47676277      -0.00122461      -2.34074306      -1.47676277
H       -1.35084462      -0.32207758       1.97960788        0       0.47606180      -0.18235907      -0.56755940      -0.27018222      -0.74057776       0.22061229      -0.27018222      -0.74057776       0.22061229
H        0.06901014      -1.57627416       2.21488747        0      -0.07081949       0.66608619      -0.02620591      -1.02562463       1.00403261       1.43882275      -1.02562463       1.00403261       1.43882275
H        1.37539257       0.23550010      -3.10883745        0       0.31008899       0.04892132      -0.07657235      -1.66084695       0.48765942       1.49332833      -1.66084695       0.48765942       1.49332833
H       -0.33563763      -0.25318445      -2.71545153        0      -0.07113923      -0.42911237       0.25155959       0.00335377       2.04352212       0.09545527       0.00335377       2.04352212       0.09545527
H        0.64819386       1.63941900      -2.14562741        0       0.71395423       0.61904286      -0.43417181      -1.68153620      -1.74625421      -1.27413058      -1.68153620      -1.74625421      -1.27413058
12
Properties=species:S:1:pos:R:3:molID:I:1:momenta:R:3:force_mace:R:3:forces:R:3 Nmols=1 Comp=DMC(1) energy_mace=-67.49445343017578 energy=-67.49445343017578 free_energy=-67.49445343017578 stress="0.0 0.0 0.0 0.0 0.0 0.0 0.0 0.0 0.0" pbc="F F F"
C       -0.09196409      -0.03278898       0.01624087        0       0.10404111      -2.11665125       0.51620098       0.71437800      -0.16984089      -0.78684205       0.71437800      -0.16984089      -0.78684205
O       -1.30769428      -0.14772231      -0.13180027        0       0.65235148      -0.70493156      -0.32695248       0.60428786       0.24738270       0.08889171       0.60428786       0.24738270       0.08889171
O        0.55372303       0.02225215       1.23986807        0       0.51647209      -0.85768668       0.94080969      -1.81215203      -0.78574896      -0.05828011      -1.81215203      -0.78574896      -0.05828011
O        0.78845802      -0.06697758      -1.08240597        0      -0.65915113       0.04561287      -1.91973547      -0.77700996       1.36729634       1.70833623      -0.77700996       1.36729634       1.70833623
C       -0.46511235      -0.44151817       2.35160205        0      -0.27397750       0.93951592      -1.87670497       4.15050173      -1.08803213       1.77845192       4.15050173      -1.08803213       1.77845192
C        0.53480599       0.66397103      -2.36597855        0       1.36967085       1.43165297       1.32736912      -0.32951760      -4.00915909      -0.42615092      -0.32951760      -4.00915909      -0.42615092