12
Properties=species:S:1:pos:R:3:molID:I:1:momenta:R:3:force_mace:R:3:forces:R:3 Nmols=1 Comp=DMC(1) energy_mace=-67.92330932617188 energy=-67.92330932617188 free_energy=-67.92330932617188 stress="0.0 0.0 0.0 0.0 0.0 0.0 0.0 0.0 0.0" pbc="F F F"
C       -0.06354920       0.02615914       0.03273994        0       0.60449825      -0.18197251       1.23039569      -0.59671181      -1.59123778      -1.40240479      -0.59671181      -1.59123778      -1.40240479
O       -1.09745824      -0.56171083      -0.33384407        0      -0.17245384      -0.38930675      -0.00462605       0.47906703       0.72349161       1.53658307       0.47906703       0.72349161       1.53658307
O        0.59339279       0.04178514       1.16893291        0      -0.02446843      -0.40061170       0.25971601       0.61288214       0.90691721      -0.19157398       0.61288214       0.90691721      -0.19157398
O        0.70731479       0.58054012      -0.92796504        0       0.54235417       0.12038802      -0.71391665       1.03336871       0.36341885       0.46862108       1.03336871       0.36341885       0.46862108
C       -0.18480919      -0.38314587       2.27627182        0      -0.33816061       0.52845825      -0.66356558      -1.00589681       0.89906728       1.68651438      -1.00589681       0.89906728       1.68651438
C        0.11790480       0.31317315      -2.18905210        0      -0.98024898       0.22939500      -0.24834597      -3.22365212       0.55980462      -1.66091383      -3.22365212       0.55980462      -1.66091383
H        0.50081283      -0.52887988       3.16355896        0      -0.11554968       0.14108937       0.09548448      -0.61837560      -0.12750024      -0.95737559      -0.61837560      -0.12750024      -0.95737559
H       -0.99130619       0.37122315       2.57026887        0      -0.01631568      -0.18029442      -0.07849306       0.89572346      -0.24028727      -0.16314879       0.89572346      -0.24028727      -0.16314879
H       -0.79898220      -1.19689691       1.93909299        0       0.11899365      -0.09171232       0.04872836      -0.15938412      -1.18867445       0.30851251      -0.15938412      -1.18867445       0.30851251
H        0.82173383       0.39293513      -3.04121518        0       0.14733467      -0.08053478       0.02770457       0.34200555      -0.00478253       0.62855965       0.34200555      -0.00478253       0.62855965
H       -0.51975018      -0.63449883      -2.23208618        0       0.10946479       0.18758127       0.07560043       1.01581466       0.87737507      -0.29270288       1.01581466       0.87737507      -0.29270288
H       -0.68493521       1.15580308      -2.35394812        0       0.12455170       0.11752057      -0.02868223       1.22515941      -1.17759204       0.03932911       1.22515941      -1.17759204       0.03932911
12
Properties=species:S:1:pos:R:3:molID:I:1:momenta:R:3:force_mace:R:3:forces:R:3 Nmols=1 Comp=DMC(1) energy_mace=-67.94535827636719 energy=-67.94535827636719 free_energy=-67.94535827636719 stress="0.0 0.0 0.0 0.0 0.0 0.0 0.0 0.0 0.0" pbc="F F F"
C       -0.05324774      -0.04215408       0.03162029        0      -0.07199711      -1.31055917      -1.14442108       0.35960108      -0.00359291      -1.23079586       0.35960108      -0.00359291      -1.23079586
O       -1.08860065      -0.59415883      -0.30088887        0       0.43234760      -0.59136010       0.98691078      -0.08251953       0.07470044       0.74969369      -0.08251953       0.07470044       0.74969369
O        0.60378704       0.04532040       1.17956856        0       0.45082473       0.63673522      -0.48228082      -0.00730110       0.14587581      -0.19487017      -0.00730110       0.14587581      -0.19487017
O        0.71483128       0.58353442      -0.92449480        0      -0.44724420       0.21873646       0.69044967      -0.64034855      -0.33566892       0.60060930      -0.64034855      -0.33566892       0.60060930
C       -0.24335454      -0.37033098       2.27476500        0      -1.10006422       0.15702033       0.43618356      -0.30625045      -0.64577031       1.20675492      -0.30625045      -0.64577031       1.20675492
C        0.08380651       0.38669224      -2.24043766        0       0.63706019       0.93208682      -0.30609584      -0.13957769       0.05993807      -0.93172646      -0.13957769       0.05993807      -0.93172646
H        0.41078468      -0.42189010       3.19185210        0      -0.05919207      -0.02832215       0.19788381      -0.40681985       0.23219399      -0.74482161      -0.40681985       0.23219399      -0.74482161
H       -1.03295098       0.42485041       2.43190497        0      -0.14163925      -0.20645843      -0.25207093       0.38616529      -0.96727622      -0.03198665       0.38616529      -0.96727622      -0.03198665
H       -0.62497040      -1.42951366       2.10387598        0       0.21729342      -0.00528666       0.37680130      -0.02577351       1.20018256       0.15638205      -0.02577351       1.20018256       0.15638205
H        1.02406913       0.42260144      -2.83648040        0       0.11537281      -0.02702415      -0.07244104      -0.80018008       0.07629767      -0.41270947      -0.80018008       0.07629767      -0.41270947
H       -0.41919600      -0.68482380      -2.43325748        0       0.08482343       0.18170817      -0.27612854       0.70732129       2.52382898       0.44359440       0.70732129       2.52382898       0.44359440
H       -0.54708482       1.37701148      -2.48392441        0      -0.11758526       0.04272370      -0.15479098       0.95568299      -2.36070919       0.38987583       0.95568299      -2.36070919       0.38987583
12
Properties=species:S:1:pos:R:3:molID:I:1:momenta:R:3:force_mace:R:3:forces:R:3 Nmols=1 Comp=DMC(1) energy_mace=-67.85345458984375 energy=-67.85345458984375 free_energy=-67.85345458984375 stress="0.0 0.0 0.0 0.0 0.0 0.0 0.0 0.0 0.0" pbc="F F F"
C       -0.01402963      -0.12503030      -0.05495666        0       1.00103237      -0.24051149      -0.05842826      -1.22050381       1.01784861       1.84238422      -1.22050381       1.01784861       1.84238422
O       -1.10065512      -0.64854675      -0.23502209        0      -0.90302752      -1.37576455       1.30232011       0.44882393      -0.56451559       0.17692296       0.44882393      -0.56451559       0.17692296
O        0.61958123       0.07191382       1.16953626        0      -0.55832804       0.27347989      -0.06957501      -1.54595554      -1.09995592       0.21381247      -1.54595554      -1.09995592       0.21381247
O        0.66081571       0.61568596      -0.90036700        0      -0.80039946       0.40876225      -0.22975656       0.61380923       0.06971340      -1.91625702       0.61380923       0.06971340      -1.91625702
C       -0.30347686      -0.37948868       2.33473778        0      -0.25909474      -0.02148152       0.07984315       0.72207004      -0.36067280      -1.35733175       0.72207004      -0.36067280      -1.35733175
C        0.18095830       0.47484578      -2.27732207        0       1.59438661       0.58788144      -0.95993429      -1.92531598      -0.66130304      -2.29356766      -1.92531598      -0.66130304      -2.29356766
H        0.45132002      -0.27206251       3.14558613        0       0.08914006       0.22567311       0.21696166      -1.19147968       0.13324031       0.06637122      -1.19147968       0.13324031       0.06637122
H       -1.27774653       0.20489246       2.31330983        0      -0.12849206      -0.39240872       0.00475839       1.21972895      -0.19367129       0.47004500       1.21972895      -0.19367129       0.47004500
H       -0.61104305      -1.46218391       2.21654318        0      -0.08601293       0.05142939      -0.10622944       0.45054352       0.80622792       0.07037966       0.45054352       0.80622792       0.07037966
H        1.07003243       0.46596811      -2.93612609        0       0.21595517       0.10440401      -0.18234374      -0.16138804       0.40108290       0.46484652      -0.16138804       0.40108290       0.46484652
H       -0.39900962      -0.52045455      -2.60136332        0      -0.04530166       0.04335087       0.06562715       1.06385875       1.68081081       1.23241842       1.06385875       1.68081081       1.23241842
H       -0.57315807       1.31914220      -2.62541302        0      -0.11985795       0.33518540      -0.06324334       1.52580881      -1.22880507       1.02997530       1.52580881      -1.22880507       1.02997530
12
Properties=species:S:1:pos:R:3:molID:I:1:momenta:R:3:force_mace:R:3:forces:R:3 Nmols=1 Comp=DMC(1) energy_mace=-67.92357635498047 energy=-67.92357635498047 free_energy=-67.92357635498047 stress="0.0 0.0 0.0 0.0 0.0 0.0 0.0 0.0 0.0" pbc="F F F"
C       -0.04254982      -0.11185648      -0.04112888        0      -1.63470669       0.51090559       0.24602975      -2.68210793      -0.47867495      -0.05063003      -2.68210793      -0.47867495      -0.05063003
O       -1.13502938      -0.74601694      -0.15426753        0       0.37734617      -1.28900051       1.06592874       2.70777607       1.30139852      -0.33504695       2.70777607       1.30139852      -0.33504695
O        0.55162747       0.04952021       1.16644433        0      -1.19048569      -0.78829990      -0.61248508       0.28331214       0.37004238       0.07504821       0.28331214       0.37004238       0.07504821
O        0.65094463       0.63354687      -0.94051512        0       0.58713381       0.82092884      -0.40752282       0.34504542      -0.64669549       1.32504857       0.34504542      -0.64669549       1.32504857
C       -0.27647882      -0.36955167       2.31298795        0      -0.17031812      -0.08267827      -0.35983181      -1.08794558      -0.10911212       0.14888567      -1.08794558      -0.10911212       0.14888567
C        0.28960260       0.54656533      -2.37425149        0       1.17669067       0.53359448      -0.36333375      -1.16262031      -1.44714653       1.63984179      -1.16262031      -1.44714653       1.63984179
H        0.15125993      -0.05414596       3.26658895        0      -0.09918478       0.17441221       0.30157180       1.17406678      -0.10005435       0.01500052       1.17406678      -0.10005435       0.01500052
H       -1.23397094       0.22305877       2.43388605        0       0.16665101       0.11394197       0.08557994       0.31856713      -0.86767018      -0.88766539       0.31856713      -0.86767018      -0.88766539
H       -0.36572598      -1.48051770       2.26737306        0       0.37924545      -0.15053127       0.28149973      -0.34351328       0.77300936       0.12886170      -0.34351328       0.77300936       0.12886170
H        1.24346911       0.57457196      -2.90847824        0       0.40727286      -0.12389554      -0.04589253      -0.14372784      -0.26032907      -0.38458514      -0.14372784      -0.26032907      -0.38458514
H       -0.33780596      -0.44374802      -2.39558581        0      -0.10579190      -0.14496617      -0.09112275       0.89026630       1.73240018      -0.92743808       0.89026630       1.73240018      -0.92743808
H       -0.27131395       1.48355865      -2.50387700        0       0.10614701       0.42558865      -0.10042143      -0.29911903      -0.26716807      -0.74732089      -0.29911903      -0.26716807      -0.74732089
12
Properties=species:S:1:pos:R:3:molID:I:1:momenta:R:3:force_mace:R:3:forces:R:3 Nmols=1 Comp=DMC(1) energy_mace=-67.60348510742188 energy=-67.60348510742188 free_energy=-67.60348510742188 stress="0.0 0.0 0.0 0.0 0.0 0.0 0.0 0.0 0.0" pbc="F F F"
C       -0.14527362      -0.05911139      -0.01818753        0      -0.04968258       0.84146602       0.20838097       1.31927395      -0.84554148      -0.62942344       1.31927395      -0.84554148      -0.62942344
O       -1.08797614      -0.81906937      -0.11067836        0       0.29644275      -1.19151145       0.25194357      -0.56342351       0.66845161      -1.22959888      -0.56342351       0.66845161      -1.22959888
O        0.50325625      -0.01557767       1.16224092        0       0.21525610      -0.85567329      -0.27387959       1.31630254       1.27933121      -1.04457080       1.31630254       1.27933121      -1.04457080
O        0.67319865       0.64774735      -0.93282807        0      -0.22917211       0.16704519       0.62956680      -1.80267107      -0.70257735       0.82347226      -1.80267107      -0.70257735       0.82347226
C       -0.28378663      -0.33104730       2.33373457        0      -0.20813510       0.84615835       0.35393441      -1.96294630      -0.04248746      -2.30517983      -1.96294630      -0.04248746      -2.30517983
C        0.33010519       0.60163348      -2.36909572        0       0.11851891       0.28153246       0.02362313      -1.04140520      -1.07591963      -1.30550241      -1.04140520      -1.07591963      -1.30550241
H        0.32795456       0.09741439       3.07681204        0       0.31358998       0.29795929      -0.11041559       0.13583329       0.76857138       1.80372322       0.13583329       0.76857138       1.80372322
H       -1.34748926       0.09176039       2.09390188        0      -0.17431618      -0.37153888      -0.46552560       1.46056426      -0.70535260       1.34969997       1.46056426      -0.70535260       1.34969997
H       -0.28858839      -1.42005604       2.44573476        0      -0.16968369      -0.07657187       0.17376958      -0.34955624      -0.17054215       0.18832062      -0.34955624      -0.17054215       0.18832062
H        1.26593182       0.45848378      -2.86453290        0       0.28607144      -0.12620388      -0.09259955       1.10770535      -0.09292193      -0.24511710       1.10770535      -0.09292193      -0.24511710
H       -0.32087888      -0.21843583      -2.86103435        0      -0.27324754       0.04246137      -0.38893821       0.45019758       0.48403919       1.59648335       0.45019758       0.48403919       1.59648335
H       -0.08206881       1.50793749      -2.84707275        0      -0.12564214       0.14487680      -0.30985999      -0.06987494       0.43494925       0.99769306      -0.06987494       0.43494925       0.99769306
12
Properties=species:S:1:pos:R:3:molID:I:1:momenta:R:3:force_mace:R:3:forces:R:3 Nmols=1 Comp=DMC(1) energy_mace=-67.96614837646484 energy=-67.96614837646484 free_energy=-67.96614837646484 stress="0.0 0.0 0.0 0.0 0.0 0.0 0.0 0.0 0.0" pbc="F F F"
C       -0.13064318      -0.05137014      -0.01153618        0       0.50712733      -1.08532642      -0.12255346       0.75156069      -1.87380767      -1.20840895       0.75156069      -1.87380767      -1.20840895
O       -1.06070820      -0.83291516      -0.12586845        0      -0.12241601       0.27175253      -0.91189796      -1.01652741       0.66760027      -0.97093308      -1.01652741       0.66760027      -0.97093308
O        0.55536480      -0.06794747       1.13537408        0       1.51242020      -0.78159005      -0.26223687       0.46478975       1.22418904       1.92235160       0.46478975       1.22418904       1.92235160
O        0.60940751       0.64419784      -0.89446379        0      -1.45946479      -0.10228951       0.47708059      -0.35496503       0.41883478      -0.46260452      -0.35496503       0.41883478      -0.46260452
C       -0.31836289      -0.27843544       2.32329307        0      -0.74061150       0.36939414      -0.74580828      -0.10308228      -0.87329006      -1.03437686      -0.10308228      -0.87329006      -1.03437686
C        0.34956790       0.61748732      -2.41973945        0       0.47928990       0.56336484      -0.04192899      -1.17930269      -0.14282815       2.20801783      -1.17930269      -0.14282815       2.20801783
H        0.03774352       0.28896459       3.14282311        0      -0.44711934       0.30663791       0.21678128       0.65327805       1.09770870       0.76971328       0.65327805       1.09770870       0.76971328
H       -1.36982674      -0.15401658       2.13781194        0      -0.29491391       0.42030630       0.19532017      -0.72296786       0.62988186      -0.27147254      -0.72296786       0.62988186      -0.27147254
H       -0.28112349      -1.30551999       2.63005696        0       0.29187051       0.10398626       0.41106457       0.49499375      -1.02134740       0.02413958       0.49499375      -1.02134740       0.02413958
H        1.31558028       0.41889794      -2.82021694        0       0.45144567      -0.16543051       0.02395546       0.90555584      -0.03288759      -0.72339559       0.90555584      -0.03288759      -0.72339559
H       -0.36462460      -0.18716085      -2.64246265        0      -0.20983672      -0.28187314       0.34678729      -0.02992117       0.06454602      -0.06058532      -0.02992117       0.06454602      -0.06058532
H       -0.05373533       1.61192099      -2.66316211        0       0.03220853       0.38106779       0.41343605       0.13658848      -0.15859984      -0.19244495       0.13658848      -0.15859984      -0.19244495
12
Properties=species:S:1:pos:R:3:molID:I:1:momenta:R:3:force_mace:R:3:forces:R:3 Nmols=1 Comp=DMC(1) energy_mace=-67.73017883300781 energy=-67.73017883300781 free_energy=-67.73017883300781 stress="0.0 0.0 0.0 0.0 0.0 0.0 0.0 0.0 0.0" pbc="F F F"
C       -0.06712101      -0.18389473      -0.03569484        0       0.83848282      -1.92460880      -0.62305831       0.12683913       1.06801367       0.05917618       0.12683913       1.06801367       0.05917618
O       -1.09902021      -0.80114331      -0.17001290        0      -1.11975066       0.47752965      -0.93845321      -0.25295866      -0.50267905      -0.39735225      -0.25295866      -0.50267905      -0.39735225
O        0.62351381      -0.08531126       1.17623196        0       0.83078200       0.52981081       1.42922531      -0.77772087       0.32141662      -0.93279743      -0.77772087       0.32141662      -0.93279743
O        0.54264917       0.64336632      -0.90536174        0      -0.70015218       0.36824341      -0.01108036       1.13027024      -0.11876902       1.37464714       1.13027024      -0.11876902       1.37464714
C       -0.34931980      -0.24163983       2.31569860        0       0.26505446       0.44451987       0.80729963       1.17388082       1.31236517      -1.33595109       1.17388082       1.31236517      -1.33595109
C        0.36165489       0.63734872      -2.37289794        0      -0.07474915      -0.29446377       1.30278232      -1.73149264       0.74356949       2.49860358      -1.73149264       0.74356949       2.49860358
H       -0.15727926       0.58165684       2.95334102        0       0.25312069       0.24658264      -0.48632399       0.99380291       0.92787528       1.16475689       0.99380291       0.92787528       1.16475689
H       -1.37484050      -0.04064798       2.13574253        0      -0.26080004      -0.12887206      -0.40796217      -1.53041911      -0.67534101      -0.81165081      -1.53041911      -0.67534101      -0.81165081
H       -0.06065420      -1.14659893       2.74338455        0       0.05648826       0.12465207      -0.11026696      -0.03175917      -1.82470345       1.01944053      -0.03175917      -1.82470345       1.01944053
H        1.25690783       0.47121051      -2.83637993        0       0.04278939       0.06785521      -0.16446421       2.82871485      -0.76881170      -1.33078957       2.82871485      -0.76881170      -1.33078957
H       -0.34172753      -0.12924585      -2.53717970        0      -0.07727737      -0.02800149      -0.26361073      -1.28425074      -0.88931990      -0.86410207      -1.28425074      -0.88931990      -0.86410207
H        0.08586718       1.65653256      -2.60645590        0      -0.05398836       0.11675264      -0.53408737      -0.64490682       0.40638381      -0.44398141      -0.64490682       0.40638381      -0.44398141
12
Properties=species:S:1:pos:R:3:molID:I:1:momenta:R:3:force_mace:R:3:forces:R:3 Nmols=1 Comp=DMC(1) energy_mace=-66.95380401611328 energy=-66.95380401611328 free_energy=-66.95380401611328 stress="0.0 0.0 0.0 0.0 0.0 0.0 0.0 0.0 0.0" pbc="F F F"
C       -0.05303095      -0.28557547      -0.04257264        0      -0.55973629      -0.22740585       0.01914904       0.04121271       3.69144726       0.31495324       0.04121271       3.69144726       0.31495324
O       -1.13448960      -0.79175049      -0.25156170        0       0.08603847       0.17445296      -1.63388660       0.98457003      -0.78206706       0.13063797       0.98457003      -0.78206706       0.13063797
O        0.64307306      -0.04866419       1.21390300        0      -0.01647345       0.21079753      -0.28545598      -0.94515204      -1.33453274      -2.50336409      -0.94515204      -1.33453274      -2.50336409
O        0.55372696       0.67535207      -0.89211500        0       0.48841089       0.34916433       0.27300999       0.07370462      -1.34111059       1.11257219       0.07370462      -1.34111059       1.11257219
C       -0.33755439      -0.18698303       2.35776422        0       0.65003496       0.51385548      -0.08415382       4.42326260      -1.75239766      -0.43185723       4.42326260      -1.75239766      -0.43185723
C        0.34842106       0.62604502      -2.32110445        0      -0.42924747      -0.82838827      -0.10739698      -2.10346103      -1.41467726       0.96513504      -2.10346103      -1.41467726       0.96513504
H       -0.04270586       0.69424993       2.85187914        0      -0.43013836      -0.17848873       0.31870828      -0.61696857       1.02448499       1.89305735      -0.61696857       1.02448499       1.89305735
H       -1.21220033      -0.32952427       1.88938028        0       0.35341755      -0.23081178       0.17695082      -4.14561272       0.13759078      -1.12671316      -4.14561272       0.13759078      -1.12671316
H       -0.12990659      -1.18322196       2.83409725        0      -0.10719596       0.42563031       0.37558575       0.17750606       0.83826184       0.40474159       0.17750606       0.83826184       0.40474159
H        1.22256152       0.37219246      -2.78288662        0      -0.16533044      -0.10089791       0.35135289       3.05227518      -0.24517961      -1.23306382       3.05227518      -0.24517961      -1.23306382
H       -0.34001374      -0.09081220      -2.75300613        0       0.32228517      -0.24417851       0.33940733      -0.66986674      -1.22994435       0.63883829      -0.66986674      -1.22994435       0.63883829
H       -0.12491927       1.46470158      -2.73272027        0      -0.19206515       0.13627054       0.25672936      -0.27147007       2.40812397      -0.16493747      -0.27147007       2.40812397      -0.16493747
12
Properties=species:S:1:pos:R:3:molID:I:1:momenta:R:3:force_mace:R:3:forces:R:3 Nmols=1 Comp=DMC(1) energy_mace=-67.43143463134766 energy=-67.43143463134766 free_energy=-67.43143463134766 stress="0.0 0.0 0.0 0.0 0.0 0.0 0.0 0.0 0.0" pbc="F F F"
C       -0.08948748      -0.17622363       0.00368568        0       0.01097276       2.47432108       0.58801121       0.16491324       0.71814275      -1.19235075       0.16491324       0.71814275      -1.19235075
O       -1.07675740      -0.79789467      -0.36186695        0       1.28973183      -0.55165974      -1.26567294       0.41733736      -0.13684192       0.95315361       0.41733736      -0.13684192       0.95315361
O        0.62244974      -0.04106609       1.16427639        0      -0.91820140      -0.06066633      -0.57841618      -1.94045734      -0.22759685       1.03324819      -1.94045734      -0.22759685       1.03324819
O        0.56821187       0.64304123      -0.87624518        0       0.06867423      -0.89447000       0.30426775       0.78244549       0.16790788       1.77145875       0.78244549       0.16790788       1.77145875
C       -0.31633122      -0.17618620       2.36236927        0      -0.85520876       0.33916126       0.77739697       0.21540624       1.03646326       1.83563030       0.21540624       1.03646326       1.83563030
C        0.30237152       0.52739816      -2.30900117        0       0.35298642      -1.77620656       0.21904929       0.93591613      -1.12438178       2.18520927       0.93591613      -1.12438178       2.18520927
H       -0.42921684       0.67613741       3.10176252        0      -0.17977477      -0.13125458      -0.57609431       0.97960275       0.52190197      -1.32608819       0.97960275       0.52190197      -1.32608819
H       -1.35840973      -0.28774351       2.13817258        0       0.34207228       0.29711030       0.44143702      -0.67652220      -0.79677820      -0.97775358      -0.67652220      -0.79677820      -0.97775358
H        0.00671276      -0.88544289       3.13292892        0       0.39510003       0.10774829      -0.10594490       0.51144075      -0.91456914      -0.91434145       0.51144075      -0.91456914      -0.91434145
H        1.32622111       0.54520020      -2.69296835        0      -0.54873195       0.34626707      -0.05287542       0.05629599      -0.56447816      -0.92942405       0.05629599      -0.56447816      -0.92942405
H       -0.27082381      -0.41808818      -2.29822613        0       0.01906466       0.16799275       0.30131351      -0.16433898       0.55052418      -1.37007141      -0.16433898       0.55052418      -1.37007141
H       -0.07665827       1.49412970      -2.53408951        0       0.02331456      -0.31834351      -0.05247193      -1.28203952       0.76970601      -1.06867039      -1.28203952       0.76970601      -1.06867039
12
Properties=species:S:1:pos:R:3:molID:I:1:momenta:R:3:force_mace:R:3:forces:R:3 Nmols=1 Comp=DMC(1) energy_mace=-66.8780746459961 energy=-66.8780746459961 free_energy=-66.8780746459961 stress="0.0 0.0 0.0 0.0 0.0 0.0 0.0 0.0 0.0" pbc="F F F"
C       -0.12125449      -0.03963081       0.01904621        0      -1.08942763       0.43081220      -0.57814118      -0.04423344      -2.93964911      -1.49503803      -0.04423344      -2.93964911      -1.49503803
O       -0.97897050      -0.82394806      -0.38920584        0       1.66049087      -0.09040859       0.47505223      -0.77086002       0.73923486       0.76087213      -0.77086002       0.73923486       0.76087213
O        0.51558268      -0.05156464       1.17885265        0      -1.88824520       0.04116596       0.52292406       0.19564167       0.06383289      -0.38416258       0.19564167       0.06383289      -0.38416258
O        0.62234651       0.63745289      -0.85265243        0       0.98385821       0.64298671      -0.09316587       0.99906164       1.34091723      -0.68326366       0.99906164       1.34091723      -0.68326366
C       -0.35298703      -0.13844377       2.37217185        0      -0.72382574       1.28223633      -0.92043264      -0.40612486       1.57206082      -1.53037882      -0.40612486       1.57206082      -1.53037882
C        0.33041876       0.42935532      -2.23026496        0      -0.26984400      -0.89230132       0.14782531      -0.90123719      -1.09587550      -3.77006507      -0.90123719      -1.09587550      -3.77006507
H       -0.26133987       1.05332387       2.50322145        0       0.26563160      -0.36946902      -0.26022511      -0.99705815      -2.42041850       1.67453992      -0.99705815      -2.42041850       1.67453992
H       -1.45867187      -0.52197977       2.18342453        0       0.64102723      -0.35631020       0.15741173       1.87722898       0.81578642       0.31039539       1.87722898       0.81578642       0.31039539
H        0.24105002      -0.88617703       2.92646396        0       0.14629712       0.21426791       0.13381483      -0.60603052       0.76409978       0.95933622      -0.60603052       0.76409978       0.95933622
H        1.22618061       0.51650054      -3.01822530        0      -0.12724558      -0.38945091       0.24951757      -0.88874638      -0.47337529       2.08684468      -0.88874638      -0.47337529       2.08684468
H       -0.37682671      -0.45508652      -2.56912468        0       0.40789289       0.12906868      -0.07137925       1.66894186       0.89299417       1.24435472       1.66894186       0.89299417       1.24435472
H       -0.30292964       1.20579727      -2.68079947        0      -0.00660988      -0.64259788       0.23679857      -0.12658377       0.74039167       0.82656538      -0.12658377       0.74039167       0.82656538
12
Properties=species:S:1:pos:R:3:molID:I:1:momenta:R:3:force_mace:R:3:forces:R:3 Nmols=1 Comp=DMC(1) energy_mace=-66.04988098144531 energy=-66.04988098144531 free_energy=-66.04988098144531 stress="0.0 0.0 0.0 0.0 0.0 0.0 0.0 0.0 0.0" pbc="F F F"
C       -0.11141712      -0.03701417      -0.06149084        0       1.77272955       0.26759703      -0.87490981       0.81975538      -1.33657849       0.29165435       0.81975538      -1.33657849       0.29165435
O       -0.97951543      -0.82019442      -0.40551696        0      -1.44352100       0.05551476      -1.38875170      -0.50585181       0.59239042       0.59175587      -0.50585181       0.59239042       0.59175587
O        0.42048027      -0.02901146       1.19044183        0      -1.35194165       0.28705884      -0.30723912       1.02282536       0.95449454      -0.71332192       1.02282536       0.95449454      -0.71332192
O        0.71491953       0.68452888      -0.85611328        0       1.53903757       0.49936041       0.71518737      -0.74722129      -0.52971339       1.09858048      -0.74722129      -0.52971339       1.09858048
C       -0.34091421      -0.12255714       2.30122658        0       0.21367091      -0.60595806       0.59232450      -2.89446163       0.84950560       4.11137009      -2.89446163       0.84950560       4.11137009
C        0.29617813       0.35093800      -2.24052609        0      -0.79890930      -0.88646615       0.51380016       0.43139094      -1.31768072       0.99000812       0.43139094      -1.31768072       0.99000812