12
Properties=species:S:1:pos:R:3:molID:I:1:momenta:R:3:forces:R:3 Nmols=1 Comp=DMC(1) energy=-585.3839111328125 free_energy=-585.3839111328125 stress="0.0 0.0 0.0 0.0 0.0 0.0 0.0 0.0 0.0" pbc="F F F"
C       -0.06354920       0.02615914       0.03273994        0       0.17844136      -0.34376020       1.07719402      -0.76142859      -2.47899413      -2.00808430
O       -1.09745824      -0.56171083      -0.33384407        0      -0.37132631       0.01130763       0.61994678       0.11180341       1.14490938       4.71530867
O        0.59339279       0.04178514       1.16893291        0      -0.06068457      -0.59711980      -0.95669715       0.68785477       1.03167033      -0.17813724
O        0.70731479       0.58054012      -0.92796504        0      -0.60590825       0.76431855      -0.46687405       1.36124516       0.83599967       0.31688607
C       -0.18480919      -0.38314587       2.27627182        0      -0.04014364      -0.06563936      -0.56096274      -2.63041592       0.63023555       3.23829317
C        0.11790480       0.31317315      -2.18905210        0       0.29358387      -0.58416592       0.23783068      -2.81533766       1.18936992      -5.26840019
H        0.50081283      -0.52887988       3.16355896        0       0.01339961       0.14254610       0.22731550      -2.40268874      -0.09098297      -2.66931987
H       -0.99130619       0.37122315       2.57026887        0      -0.01864405       0.28794111      -0.37432648       2.34696102      -1.51476932      -0.35420322
H       -0.79898220      -1.19689691       1.93909299        0       0.07867573      -0.13808167       0.14732151       1.04599094      -0.18608952       1.65989673
H        0.82173383       0.39293513      -3.04121518        0       0.06493475       0.18520010      -0.03584277      -1.64445865      -0.61267018       2.35787582
H       -0.51975018      -0.63449883      -2.23208618        0       0.25642326       0.05312722       0.01555753       2.78787160       2.14041328      -1.98092616
H       -0.68493521       1.15580308      -2.35394812        0       0.21124824       0.28432625       0.06953715       1.91260171      -2.08909249       0.17081016
12
Properties=species:S:1:pos:R:3:molID:I:1:momenta:R:3:forces:R:3 Nmols=1 Comp=DMC(1) energy=-586.7313232421875 free_energy=-586.7313232421875 stress="0.0 0.0 0.0 0.0 0.0 0.0 0.0 0.0 0.0" pbc="F F F"
C       -0.06433497      -0.05448134      -0.00267150        0       0.46480585      -0.89340457      -1.31813236       2.80547714       2.30701065      -0.34850669
O       -1.12117375      -0.54473486      -0.18702421        0      -1.14688206      -0.45645782       3.05159467      -2.42795110      -1.46351945      -0.65305054
O        0.61229976       0.00875127       1.15139214        0      -0.21656968      -0.82303603       0.74603464       0.15832257      -0.58900869       0.22559427
O        0.67656712       0.62517843      -0.93777116        0      -0.46905785       0.63843383      -0.02128231      -1.05251479      -1.80360878      -0.55888397
C       -0.23673811      -0.38669753       2.27403959        0      -0.33170369       0.14070975       0.46148791       1.05317914       3.24576664       0.73782992
C        0.16214998       0.35345936      -2.28301359        0       1.12007158       1.00852665      -2.48793913      -1.37496543       1.94518173       0.32209516
H        0.37919133      -0.47022626       3.13633366        0       0.04192440       0.16042790      -0.36646576      -0.09761798       0.28055379      -0.09027839
H       -0.91346295       0.47025659       2.38997623        0       0.12429259      -0.36585700      -0.10752339       0.35925269      -2.10487247       0.25572935
H       -0.67343287      -1.32071802       2.15474273        0      -0.05896345       0.35983270      -0.14712556      -1.29853499      -0.92429495      -0.61786783
H        0.92708865       0.48162173      -2.96615198        0       0.02586929       0.26826320       0.28265059       1.25344372       1.05399346      -0.65185523
H       -0.10744446      -0.65408185      -2.55671211        0       0.29128893       0.56655789       0.19993053      -0.97957999       0.52793193       1.36242509
H       -0.63464136       1.12846567      -2.44266172        0       0.15492391      -0.60399669      -0.29323006       1.60148859      -2.47513366       0.01676834
12
Properties=species:S:1:pos:R:3:molID:I:1:momenta:R:3:forces:R:3 Nmols=1 Comp=DMC(1) energy=-585.93896484375 free_energy=-585.93896484375 stress="0.0 0.0 0.0 0.0 0.0 0.0 0.0 0.0 0.0" pbc="F F F"
C       -0.05402248      -0.07330059      -0.07760303        0      -0.83773279       0.28905201      -0.20347877      -2.33086729       0.04341364       2.80198741
O       -1.16852949      -0.57663451      -0.06651741        0       0.28600298      -0.57959012       0.54608264       1.42293692       0.47955024      -2.11582327
O        0.61393485      -0.07004192       1.14811079        0      -0.09840493      -1.48804739      -0.70447250       0.31896901       0.23545039      -0.97386062
O        0.63058677       0.61206445      -0.95545375        0      -0.69232223      -0.21868436      -0.51430459       0.21984959       0.03860211       0.26169586
C       -0.24599743      -0.35192959       2.26646029        0      -0.81730261       0.72745305      -0.21919673       1.78207612       1.03030908       1.37913465
C        0.27987679       0.46975290      -2.35328647        0       1.03072120       0.94740362       0.60900351       1.09764957       1.27774429       4.98783398
H        0.34409939      -0.40675042       3.14870354        0       0.00461409      -0.04734204       0.44079740       0.59728241      -0.31484118      -0.25940919
H       -0.99733154       0.32875142       2.49708806        0       0.15607591      -0.00351874       0.07732808      -1.06291652       2.38282490      -0.34382206
H       -0.84740901      -1.17205353       2.15646540        0      -0.11915431      -0.38459899       0.11222023      -0.87539816      -3.24430847      -0.54424542
H        1.02893063       1.00155007      -2.78078018        0       0.21963600       0.63201422       0.03218827       2.98840070       1.03222203      -2.29405737
H        0.07672823      -0.50363402      -2.43688978        0       0.66180469       0.17236735      -0.27004543       0.27794415      -5.67661190      -1.59699798
H       -0.60912337       0.83196758      -2.68726221        0       0.20606181      -0.04650880       0.09387776      -4.43592644       2.71564436      -1.30243635
12
Properties=species:S:1:pos:R:3:molID:I:1:momenta:R:3:forces:R:3 Nmols=1 Comp=DMC(1) energy=-585.9378662109375 free_energy=-585.9378662109375 stress="0.0 0.0 0.0 0.0 0.0 0.0 0.0 0.0 0.0" pbc="F F F"
C       -0.12244867      -0.04479992      -0.01543563        0      -0.19181196       0.33719830       1.02115526       0.46599197      -1.46801519      -1.37480783
O       -1.17818322      -0.59823287      -0.11301573        0      -1.14915495       0.14652818      -1.66449681      -1.51337218       0.15785491      -0.80573630
O        0.60453448      -0.15314124       1.11394452        0      -0.20562015      -1.32040351      -0.12322239      -0.10325623       0.52325994       1.44387031
O        0.58174295       0.63388119      -0.91534725        0      -0.54514410       0.96947985       1.70760627       1.29557991       0.90914083       1.09173059
C       -0.28975274      -0.35196067       2.27270906        0       0.78111083      -0.19749082      -0.20089324       4.67610359      -3.67773533       1.23575366
C        0.38984498       0.52185985      -2.32804540        0       1.30511596      -0.41814613      -0.44574478      -0.13883913       5.54679585       0.51510429
H        0.42716537      -0.41277449       3.14180348        0       0.13296226       0.12156488       0.00864279      -2.53993797       0.73093063      -2.03389502
H       -0.94576120       0.43826519       2.27170199        0      -0.10084478      -0.07065231      -0.26083955      -1.47180080       0.82070839       0.81983209
H       -0.74368635      -1.35634231       2.20963660        0      -0.30879928      -0.22206169      -0.05074916       0.09360278       2.17354655       0.05595420
H        1.11169200       1.23955111      -2.81424120        0       0.27256691       0.61206433      -0.14714360      -2.09314251      -0.48531246       1.11656380
H        0.84960286      -0.21683704      -2.80581800        0       0.23142095       0.53272482      -0.02517333       0.76024854      -4.59411716      -1.56374002
H       -0.63526027       0.75300849      -2.53342983        0      -0.22180188      -0.49080607       0.18085856       0.56882048      -0.63705659      -0.50063020
12
Properties=species:S:1:pos:R:3:molID:I:1:momenta:R:3:forces:R:3 Nmols=1 Comp=DMC(1) energy=-585.9749755859375 free_energy=-585.9749755859375 stress="0.0 0.0 0.0 0.0 0.0 0.0 0.0 0.0 0.0" pbc="F F F"
C       -0.15518811      -0.08229564      -0.02452914        0      -0.34618142      -1.06967253      -0.83858986       1.06340134      -0.13854635      -0.08009160
O       -1.23456385      -0.58622433      -0.20513872        0      -0.29883306       0.25814821      -1.00529876       1.68213367       0.73821902       0.37270436
O        0.62022024      -0.22278750       1.12874214        0       0.41076839      -0.71162576      -0.24428905      -1.10719252       0.28320554      -2.88367510
O        0.55606623       0.72707784      -0.83701944        0      -0.28606558       1.81064649       0.73806124      -0.00507307      -1.15037489      -1.96591640
C       -0.23551326      -0.36803478       2.25747890        0      -0.20759434      -0.34946064       0.60151393      -2.02866077      -0.66952080       2.80419374
C        0.48529432       0.53114874      -2.32343210        0       0.50886390       0.11788791       1.39816154      -4.52764893       5.10001469       3.48270202
H        0.30177547      -0.26140461       3.18979253        0      -0.30184285      -0.16437527      -0.25441259      -0.27058804      -0.84826076      -1.38503337
H       -0.96133960       0.41033926       2.31739506        0       0.11369260       0.29484570      -0.13999807       0.01420355      -0.12071252      -0.37007311
H       -0.82292282      -1.30126965       2.20009747        0       0.28067509       0.17014372       0.01311591       1.36748230       1.43754506       0.18930805
H        0.76486781       1.61634406      -2.63276594        0      -0.47667489      -0.00219303      -0.21994305      -0.94649047      -4.82658386       0.11480367
H        0.92960090      -0.29884147      -2.69954442        0       0.49907468      -0.19511605       0.17902177       2.74147129      -1.52299500      -0.88039362
H       -0.57582793       0.19831582      -2.57196609        0       0.10411748      -0.15922909      -0.22734297       2.01696086       1.71800911       0.60147190
12
Properties=species:S:1:pos:R:3:molID:I:1:momenta:R:3:forces:R:3 Nmols=1 Comp=DMC(1) energy=-585.99951171875 free_energy=-585.99951171875 stress="0.0 0.0 0.0 0.0 0.0 0.0 0.0 0.0 0.0" pbc="F F F"
C       -0.11831016      -0.10619015      -0.07678721        0       0.88226225       0.95105278      -0.29309539      -1.46778965       0.85630429       2.21873784
O       -1.22900117      -0.55188237      -0.25169568        0       0.61444761       0.44751557      -0.61255634       0.50985390      -0.58486199      -0.08568698
O        0.59960533      -0.27137051       1.06172908        0      -0.71527760      -0.89702183      -0.63252258      -0.09436440      -0.86445516       2.40646553
O        0.53809760       0.78862467      -0.79914739        0      -0.63178971       0.77408575       1.01785053       0.80240381       1.60269427       2.10508657
C       -0.26538264      -0.39923706       2.25311058        0       0.20609480      -1.20712570      -1.25505276      -0.62355232       3.26930857      -4.49935675
C        0.49500837       0.52339705      -2.15898249        0      -0.44650641      -0.09722608       0.57060149      -1.89379883       1.47007108      -6.47721004
H        0.27060441      -0.44203457       3.11771894        0       0.08837891      -0.02353276      -0.11296800       1.92135811       0.25060862       2.50640941
H       -0.95918895       0.44952993       2.23065608        0      -0.32312140       0.25381876       0.12762686       0.77724171      -1.05510974       0.57999617
H       -0.79426394      -1.26623794       2.13021684        0      -0.31684357       0.10867116      -0.08368570      -1.80665481      -2.52774239      -0.20611215
H        0.45608612       1.35952358      -2.92081930        0       0.00206766      -0.31051361       0.43516739       0.57793248      -1.49089396       2.26314378
H        1.45015130       0.08048689      -2.30391372        0       0.42741658       0.40982994       0.24163227      -1.43638730      -0.59376436      -0.68892920
H       -0.50869401       0.10559616      -2.42744998        0       0.21287085      -0.40955409       0.59700208       2.73375702      -0.33215904      -0.12254399
12
Properties=species:S:1:pos:R:3:molID:I:1:momenta:R:3:forces:R:3 Nmols=1 Comp=DMC(1) energy=-586.13623046875 free_energy=-586.13623046875 stress="0.0 0.0 0.0 0.0 0.0 0.0 0.0 0.0 0.0" pbc="F F F"
C       -0.12687827      -0.02361606      -0.00107026        0      -0.18825236       0.85177342       1.41754406      -0.26952696      -0.66594267      -1.95728207
O       -1.18998423      -0.53490113      -0.31069535        0       0.26862617       0.07522909      -1.22408551       1.05744171       0.96368706       0.00946128
O        0.57673012      -0.35351989       1.08133541        0      -0.27308219      -1.40506602       0.64034630       0.30307746       0.60699302      -0.60887516
O        0.55759350       0.87453886      -0.74903790        0       1.15608699       1.49113629       0.16665253      -1.26781034      -1.55849385      -1.91053367
C       -0.32250532      -0.44623176       2.16870554        0      -0.95166253      -0.26935193      -0.01209352      -0.18837786       2.86461949       3.58383060
C        0.49148858       0.50093382      -2.16415364        0       0.01486447      -0.14658714       0.04669474       1.79145181      -2.42723870       1.39970660
H        0.35172973      -0.61922054       2.95698263        0       0.04824109      -0.28389291      -0.05122649      -0.32595742       0.33335799       0.61048126
H       -0.93548235       0.52892451       2.40841391        0      -0.03412172       0.04705166      -0.06088533       1.66753042      -2.92286515      -0.79673004
H       -0.96477156      -1.25653256       2.14273587        0      -0.16721843      -0.11606331      -0.07009896      -1.51349258      -0.90376115      -0.66527885
H        0.29647438       1.37199186      -2.65460619        0      -0.63276136      -0.39451835       0.16799865      -1.16819227       2.09787822      -1.37284768
H        1.43163316       0.12715047      -2.46905064        0       0.14925607      -0.10337799      -0.48758399       1.25256538       0.42625463       0.26615715
H        0.00368989      -0.38366006      -2.57913595        0       0.61002359       0.25366705      -0.53326252      -1.33870935       1.18551111       1.44191074
12
Properties=species:S:1:pos:R:3:molID:I:1:momenta:R:3:forces:R:3 Nmols=1 Comp=DMC(1) energy=-586.1585083007812 free_energy=-586.1585083007812 stress="0.0 0.0 0.0 0.0 0.0 0.0 0.0 0.0 0.0" pbc="F F F"
C       -0.10632595      -0.01980165       0.00051916        0       1.04222935       0.29050696      -0.70091021       1.39594150       0.18439294      -0.67824960
O       -1.13869047      -0.48556105      -0.39645236        0       0.33577927       0.92815960      -1.50315675      -1.73491836      -0.48987442       0.34459496
O        0.52869578      -0.40279161       1.11293195        0      -1.20089034       0.23623665       0.69167900      -0.35731673       1.16705465       0.82369828
O        0.57387833       0.89325029      -0.77591663        0      -0.49174901      -1.12522653       0.00107560      -0.19595087      -1.75132418       2.03424335
C       -0.37565124      -0.50596253       2.24714180        0      -0.52911884      -0.77547948       1.12070468      -0.15927410       3.40173244       0.95741647
C        0.54594595       0.50845182      -2.16996461        0       0.40067341       0.31495920      -0.25423181       2.26695156       0.17650342       0.82261252
H        0.18318165      -0.75639926       3.13342684        0      -0.45965808      -0.18556932       0.37335519      -0.54921395       0.24390030      -1.13260150
H       -0.98473471       0.46007894       2.46917089        0       0.30180153      -0.37019453       0.00466827       2.19121671      -2.31899595      -0.66494882
H       -1.13240805      -1.18095956       2.05212883        0      -0.07460573      -0.13085520      -0.08629876      -0.87724948      -1.46475613      -0.39315289
H       -0.06872858       1.23323356      -2.52201111        0       0.02389726       0.18184229      -0.18214756      -0.49301642       2.31501627      -1.79846346
H        1.62508860       0.58330573      -2.45977445        0       0.30770117       0.64113923      -0.09030868      -3.22606230      -0.88031840      -0.27758980
H       -0.05929575      -0.33706044      -2.46972084        0       0.34393994      -0.00551884       0.62557120       1.73889232      -0.58333099      -0.03755969
12
Properties=species:S:1:pos:R:3:molID:I:1:momenta:R:3:forces:R:3 Nmols=1 Comp=DMC(1) energy=-585.8384399414062 free_energy=-585.8384399414062 stress="0.0 0.0 0.0 0.0 0.0 0.0 0.0 0.0 0.0" pbc="F F F"
C       -0.06084764      -0.07894084      -0.01959574        0      -0.63388897      -1.56091964      -0.13082682      -3.28646445      -0.95420134       0.85703540
O       -1.13076589      -0.47123496      -0.47825600        0       0.06663061      -0.33268745      -1.10885910       0.91589832      -1.11593187       1.42235637
O        0.48655305      -0.38962084       1.17940132        0      -0.09121231       0.30468348       1.28660405       0.77821422      -0.14271063      -1.48541152
O        0.55013763       0.82941969      -0.74865000        0       0.65803371      -0.42492921       0.03432769       2.83946204       2.32821083      -1.29205418
C       -0.40748612      -0.54750785       2.30443971        0      -0.02141663       0.52650931       0.37259090      -2.49935913       2.27103281      -2.17301607
C        0.57029237       0.64825392      -2.18385725        0       0.75578668       1.41357567      -0.05401873       4.05935049      -0.96874905      -1.82681489
H       -0.10474445      -0.85088180       3.24764729        0      -0.11575932      -0.01418693      -0.14720098       1.60633981      -0.70511287       0.99265456
H       -0.77833922       0.47094051       2.47155134        0      -0.02905732      -0.56608331       0.01400380      -0.15885890      -1.55832171      -0.11820614
H       -1.17580209      -1.25171539       2.02386503        0      -0.19892591      -0.11890413      -0.01126091       0.16030109       0.74084461      -0.06478959
H        0.02055433       1.28216366      -2.81550151        0      -0.69361384       0.05357882      -0.19741601      -1.57100129       0.12403727       0.98417819
H        1.55736889       0.81733133      -2.72027752        0      -0.01276167       0.09838494       0.10678535      -1.27949286       0.30549961       2.31036901
H        0.54202519      -0.37981176      -2.42869560        0       0.31618504       0.62097862      -0.16472909      -1.56438863      -0.32459807       0.39369839
12
Properties=species:S:1:pos:R:3:molID:I:1:momenta:R:3:forces:R:3 Nmols=1 Comp=DMC(1) energy=-585.6235961914062 free_energy=-585.6235961914062 stress="0.0 0.0 0.0 0.0 0.0 0.0 0.0 0.0 0.0" pbc="F F F"
C       -0.12730671      -0.13745905       0.01427615        0       0.28579671       0.20614749      -0.11282497       1.12083244       1.11164927      -2.58122230
O       -1.12543210      -0.56960196      -0.51659610        0      -0.94474551      -2.45385899      -0.41065580       1.86485136       0.47300425       1.85360241
O        0.50618740      -0.36398977       1.18014837        0       0.02035528       0.52544971      -1.05331311      -3.23981476       0.73806417      -1.14892721
O        0.62372429       0.82119269      -0.73543214        0       2.01825591      -0.32400383       1.13580647       0.26644480      -2.17545605       2.73953700
C       -0.45805356      -0.52368741       2.28651522        0      -1.11538424       0.59946855      -0.60319214       0.33332860      -3.71157241      -3.62757587
C        0.62087838       0.74912675      -2.21061882        0      -0.05256569       0.54501035       0.58359698      -2.72929621       4.84691095       5.54171038
H        0.07413359      -0.99844417       3.05277857        0       0.38996429      -0.19775745      -0.00536624       0.21565962      -0.22432494       0.65928280
H       -0.92244338       0.33218553       2.56696079        0       0.14106193      -0.23417971       0.05562264      -0.79600203       3.44396734       1.12277186
H       -1.33823711      -1.12786048       1.97006944        0      -0.13218885       0.18329968       0.04328340       1.72192717       0.37132645       0.32344514
H       -0.34486191       1.24954836      -2.28939671        0      -0.03623698       0.38476748       0.49520583       1.54930210       0.53622597      -1.40443933
H        1.51169994       1.30262375      -2.40674030        0      -0.58691388       0.31106240      -0.01048787      -0.97400904      -1.22141051      -1.29355896
H        0.29063259      -0.14198301      -2.53027335        0       0.01260113       0.45459451      -0.11767540       0.66677541      -4.18838406      -2.18462586
12
Properties=species:S:1:pos:R:3:molID:I:1:momenta:R:3:forces:R:3 Nmols=1 Comp=DMC(1) energy=-585.83203125 free_energy=-585.83203125 stress="0.0 0.0 0.0 0.0 0.0 0.0 0.0 0.0 0.0" pbc="F F F"
C       -0.11786069      -0.11385980      -0.11357547        0       0.32180733       0.23991456      -1.87218124       2.29076457       0.28206897       2.21424675
O       -1.08039678      -0.69091613      -0.47055847        0       1.55559635      -1.35447286       1.13551804      -1.87353575      -0.36816990      -1.69117677
O        0.42683727      -0.30541734       1.12524061        0      -1.10893050       0.72036358      -0.37963318       2.28837228       0.18030307      -1.08260536
O        0.73784653       0.75488488      -0.64290232        0       1.47222495      -1.48829216       0.81221878      -0.62430716      -0.30947936      -2.42093706
C       -0.48724968      -0.51331924       2.17516410        0      -0.17380562      -0.53848076      -1.41875035      -0.15462828      -2.84798026       4.53631067
C        0.50637366       0.84679545      -2.06522532        0      -1.46643846       2.64060127       1.60762377      -2.13677692       6.96505785       2.39566684
H        0.06126044      -1.07507486       2.98539828        0      -0.18745571      -0.05719148       0.01630313      -1.55829036       1.09767771      -2.10524821
H       -0.67006032       0.41883484       2.62561104        0       0.00623406       0.36036457       0.08731493      -1.11789417      -0.11392200      -0.23019695
H       -1.34187844      -1.12198282       1.90101454        0       0.01392076       0.26605058       0.30141529       0.69344044       1.30575001       0.54706287
H       -0.34596783       1.57724262      -2.20955936        0      -0.30321928      -0.16058480      -0.22800070       1.66830611      -2.31623507       0.12395489
H        1.29791701       1.20373458      -2.64595132        0      -0.05017129      -0.44010373       0.00819391       1.95260787       1.55579746      -0.08828545
H        0.52409400       0.03548528      -2.62546832        0      -0.07976262      -0.18816873      -0.07002278      -1.42805922      -5.43086910      -2.19879246
12
Properties=species:S:1:pos:R:3:molID:I:1:momenta:R:3:forces:R:3 Nmols=1 Comp=DMC(1) energy=-585.7474365234375 free_energy=-585.7474365234375 stress="0.0 0.0 0.0 0.0 0.0 0.0 0.0 0.0 0.0" pbc="F F F"
C       -0.05488193      -0.15445951      -0.11572804        0       0.29180422      -1.40132498       1.20343998      -1.83432603      -1.94956613       0.19671930
O       -1.03535157      -0.78710120      -0.46818633        0       0.27011575      -1.15023266      -0.68570341       1.40978539       1.86232090      -1.05082190
O        0.44270489      -0.26241451       1.10945862        0       1.25265303       0.58704990       0.94398976       0.69876599      -0.66751921       4.92632723
O        0.81146866       0.67542629      -0.67018597        0       1.19423716      -0.25119967      -2.36378738      -1.78978944       1.26810145      -3.51481533
C       -0.51971038      -0.53490455       2.19968212        0      -1.42660298      -0.59878998       0.93371983       0.81344831       1.69671130      -1.08253527
C        0.38890493       1.03302901      -2.04089388        0      -1.12818135       0.85109207       0.14582063       3.39292526       5.21646214       3.91664553
H       -0.05200658      -1.21700220       2.87965902        0      -0.19204469       0.16461682      -0.44614335      -0.55891681       1.01423168      -0.33173347
H       -0.89361949       0.41708681       2.55492575        0      -0.31985538       0.12782684       0.12914846       1.36556697      -0.68284369       0.80017203
H       -1.43646684      -0.87279812       1.85410768        0       0.34532745       0.31625986      -0.20555065      -1.21969962      -1.79160166      -0.49701673
H       -0.52921492       1.52437857      -2.30665006        0       0.17031021       0.29769309       0.29797360      -0.25224614       1.44309568       0.76500916
H        1.24473174       1.58908907      -2.40469050        0      -0.11818769       0.76234674       0.06670075      -1.32187080      -0.92854518      -0.17025054
H        0.11051564       0.17905079      -2.39254212        0      -0.33957596       0.29466197      -0.01960854      -0.70364368      -6.48084688      -3.95769978
12
Properties=species:S:1:pos:R:3:molID:I:1:momenta:R:3:forces:R:3 Nmols=1 Comp=DMC(1) energy=-585.7366333007812 free_energy=-585.7366333007812 stress="0.0 0.0 0.0 0.0 0.0 0.0 0.0 0.0 0.0" pbc="F F F"
C       -0.01870660      -0.24225731      -0.07572497        0       1.79741524      -0.40621490      -0.32416292       2.05594063       1.77494216       0.62568182
O       -0.97390524      -0.82111638      -0.52557586        0       1.91564257       0.55805411      -0.71574089       2.22900844       1.18971717       1.70170164
O        0.48774805      -0.23145998       1.24775373        0      -0.61535399       0.59257693       1.31028015      -3.57568383      -0.10801500      -5.34322882
O        0.80609160       0.62416813      -0.81413563        0      -1.13138112      -2.81964606      -0.79559688      -0.25978279      -3.66179276       4.45254612
C       -0.57700499      -0.51464917       2.17545513        0       0.93696082       0.19741287      -0.05423000       2.85823345       2.46736670       2.61059594
C        0.27794032       1.13945268      -2.01017075        0      -1.81795787       2.67995251       0.27677479       1.76669443       4.70028114       0.66302896
H       -0.19190655      -1.19480015       2.83260326        0      -0.26266459      -0.26736772       0.16329885       1.61943603      -2.36003923       1.48657513
H       -0.72275177       0.28572192       2.91264835        0      -0.09911784      -0.05528603       0.08886440      -0.56013322      -0.06812668      -1.97006512
H       -1.43228846      -0.98868229       1.86499039        0      -0.24601142      -0.15897755       0.30528927      -2.75406456      -0.25262213      -1.97494853
H       -0.44048181       1.83242064      -1.64212214        0      -0.24017172      -0.27063512       0.68079449      -0.65698576      -0.73066670      -1.34513915
H        1.02407655       1.71918261      -2.56006305        0       0.01829924      -0.17518436      -0.30118116      -0.49790537      -0.05405331       1.04231274
H        0.13649379       0.46110297      -2.73775270        0      -0.25565995       0.12531527      -0.63439038      -2.22475839      -2.89699173      -1.94906020
12
Properties=species:S:1:pos:R:3:molID:I:1:momenta:R:3:forces:R:3 Nmols=1 Comp=DMC(1) energy=-585.46484375 free_energy=-585.46484375 stress="0.0 0.0 0.0 0.0 0.0 0.0 0.0 0.0 0.0" pbc="F F F"
C        0.14306647      -0.24519056      -0.04988569        0       0.84154572      -0.67162279       1.15407341      -4.99397469      -0.28955328      -0.22222984
O       -0.83774314      -0.79088950      -0.52337967        0       1.76279140      -0.33410344       0.27393622      -1.41236722      -1.87402749      -0.60915875
O        0.40339201      -0.14796852       1.22216520        0      -1.02931438       1.85316149      -0.53362111       1.81907916       0.05407405       4.08915329
O        0.83114345       0.45551829      -0.88581133        0       2.54799573       0.01979585      -3.06845256       3.24720263       4.54451275      -4.84990168
C       -0.58926254      -0.55754051       2.26504807        0      -0.72273461      -0.70211955       0.11906292      -0.91424042      -0.19664362      -4.23604393
C        0.13372435       1.24086209      -1.99134050        0      -2.07852121      -0.16389081       1.99055465      -1.25815392      -1.38131905       3.67135668
H       -0.17442819      -1.45822504       2.74315703        0       0.07244354      -0.36784696       0.21374081      -1.28195238       2.54985690      -0.41129136
H       -0.91585800       0.32401447       2.80268630        0       0.25009830      -0.19698508       0.03074802       1.32702267      -1.68327212       0.24828398