12
Properties=species:S:1:pos:R:3:molID:I:1:momenta:R:3:forces:R:3 Nmols=1 Comp=DMC(1) energy=-589.4159545898438 free_energy=-589.4159545898438 stress="0.0 0.0 0.0 0.0 0.0 0.0 0.0 0.0 0.0" pbc="F F F"
C       -0.06354920       0.02615914       0.03273994        0      -0.10426439      -0.28764960      -0.07790710      -1.30219805      -1.77826095      -2.51843977
O       -1.09745824      -0.56171083      -0.33384407        0      -1.21048731      -0.55323186       0.68630464       1.73323417       1.16269338       2.52499890
O        0.59339279       0.04178514       1.16893291        0      -0.80957585       0.43559798      -0.22200663      -0.65370035       0.28960162       0.50661159
O        0.70731479       0.58054012      -0.92796504        0       0.68185261       0.89773240       0.25749109      -0.36659509      -0.49289024      -0.16638482
C       -0.18480919      -0.38314587       2.27627182        0       0.65107526       0.18065973      -0.75247591      -0.66185009       1.10342574       1.21925354
C        0.11790480       0.31317315      -2.18905210        0       0.36872429      -0.67510822      -0.25651579      -1.69030547       1.53193688      -1.86511540
H        0.50081283      -0.52887988       3.16355896        0      -0.03165505      -0.05804388      -0.01045209      -0.81016380      -0.11403465      -1.26648092
H       -0.99130619       0.37122315       2.57026887        0       0.24093959      -0.17692117      -0.13700275       1.23767734      -0.27173388      -0.23022254
H       -0.79898220      -1.19689691       1.93909299        0      -0.05854355      -0.16763332       0.33988789       0.18121305      -0.97925568       0.25223994
H        0.82173383       0.39293513      -3.04121518        0       0.11003581       0.12808657       0.01221073      -0.15971172      -0.22576720       0.89123547
H       -0.51975018      -0.63449883      -2.23208618        0      -0.16588029       0.04132024      -0.02396121       1.22932184       0.99240708       0.49553025
H       -0.68493521       1.15580308      -2.35394812        0       0.32777887       0.23519112       0.18442713       1.26307797      -1.21812224       0.15677382
12
Properties=species:S:1:pos:R:3:molID:I:1:momenta:R:3:forces:R:3 Nmols=1 Comp=DMC(1) energy=-589.358642578125 free_energy=-589.358642578125 stress="0.0 0.0 0.0 0.0 0.0 0.0 0.0 0.0 0.0" pbc="F F F"
C       -0.05123720      -0.07474126      -0.04685113        0       1.04435967      -0.96544078      -1.12102047       2.69608569       2.41989279       1.72615564
O       -1.09560258      -0.54099257      -0.24584768        0      -0.13963732       0.02246647       1.61199825      -2.85637522      -1.88243771      -0.43275911
O        0.53287936       0.06095768       1.14770901        0      -0.80489921       0.39376991      -0.69780986       0.79111946      -0.48180214      -0.96726191
O        0.70532599       0.61481559      -0.91065344        0      -0.89994863      -0.50494703       0.26386135      -0.85493606      -1.48551333      -0.59078336
C       -0.17568767      -0.39129492       2.23152619        0       0.01355221       0.60545465       0.14560704       0.04936227       2.85937309       2.89809275
C        0.11149314       0.31960901      -2.19628647        0       0.16090240       0.86902691       0.36624884       1.06612587       1.95888805      -0.39566728
H        0.57476254      -0.59934581       3.02203380        0       0.35820077       0.11015100      -0.23235345      -0.14523458       0.58244014      -0.24026890
H       -0.83151335       0.54291644       2.56610524        0       0.27370750       0.02774230       0.04560785       0.86301231      -2.05715203      -0.23258622
H       -0.69239072      -1.29542451       2.21118954        0      -0.03891977      -0.19227764      -0.00901597      -1.27079105      -1.12920666      -0.95637077
H        0.96361895       0.34065234      -2.90362486        0       0.13294078      -0.12019858       0.03148745      -0.73330861      -0.25016022       0.17262200
H       -0.38522367      -0.67522044      -2.10711221        0       0.14397244      -0.25845166       0.03716004       0.13095564       1.16577160      -0.50252366
H       -0.52699334       1.25591066      -2.34927383        0      -0.24423082       0.01270452      -0.44177107       0.26398396      -1.70009327      -0.47864911
12
Properties=species:S:1:pos:R:3:molID:I:1:momenta:R:3:forces:R:3 Nmols=1 Comp=DMC(1) energy=-589.1480712890625 free_energy=-589.1480712890625 stress="0.0 0.0 0.0 0.0 0.0 0.0 0.0 0.0 0.0" pbc="F F F"
C        0.01540172      -0.11054893      -0.07250966        0      -1.18696184      -0.35401772       0.40217486      -4.01401758       0.10823965       1.97898316
O       -1.11067072      -0.56607423      -0.17241320        0       0.60193951      -0.91455952       1.06862413       0.63422281      -0.66675365      -0.87548774
O        0.52648902       0.07619282       1.09747344        0       0.69670647       0.31806170       0.02425559       1.38403034       0.29433417       2.45058870
O        0.64510576       0.60381525      -0.92958977        0      -0.53151562       0.42239401      -1.22980746       0.71383202       0.76135457      -1.50073314
C       -0.16929679      -0.38156221       2.30837056        0       0.39118776       0.08879871       0.57872245       1.10734534       2.64800286      -0.01184227
C        0.15003207       0.38882404      -2.20394725        0       0.33870103       0.51069195      -1.14112467       0.09787571      -1.90089011      -3.24615216
H        0.73748967      -0.46691751       2.93807100        0      -0.08860815      -0.02650456       0.36606930      -1.05278754      -0.56316191       0.06534953
H       -0.87078115       0.40928127       2.76953207        0      -0.20364014      -0.26025914       0.27876721       1.15918088      -0.84040326      -0.85671687
H       -0.75803826      -1.18676220       2.00710484        0      -0.13866544       0.21471684      -0.23105568      -0.51804835      -1.50814080       0.14904696
H        1.02311614       0.24115664      -2.89625806        0       0.28210459       0.09958790      -0.06869297      -0.61641812       0.61452258       0.60264057
H       -0.39820605      -0.56903622      -2.26601692        0      -0.12332164      -0.11636999      -0.11003632       0.50617230      -0.44864857       0.57596958
H       -0.64911570       0.94619018      -2.70419889        0      -0.03792670       0.01745982       0.06210376       0.59861195       1.50154424       0.66835380
12
Properties=species:S:1:pos:R:3:molID:I:1:momenta:R:3:forces:R:3 Nmols=1 Comp=DMC(1) energy=-589.6925048828125 free_energy=-589.6925048828125 stress="0.0 0.0 0.0 0.0 0.0 0.0 0.0 0.0 0.0" pbc="F F F"
C       -0.05160550      -0.07102701       0.01080620        0      -0.31758309       1.83752041       1.34338680      -0.35902333       1.01420510      -1.27851653
O       -1.11041853      -0.63296992      -0.14190412        0      -0.85187768      -1.49902198      -0.04272378       0.92705911       0.09617060       0.03995840
O        0.58678246       0.11200509       1.16766674        0       1.25537783       0.07123454       2.00443906      -0.37559518      -0.37586620       0.21796447
O        0.59679899       0.62282904      -1.01048251        0      -1.20075894       0.02529912      -0.48291498       0.14269474      -1.20353162       2.28445864
C       -0.13265705      -0.37269677       2.30641035        0       0.58920458      -0.48458948      -0.22626359      -1.46890521       0.54722357       0.28226250
C        0.16490816       0.35999381      -2.33519636        0      -0.06386495      -0.60131628      -1.51491463      -0.76910925       1.57086599       1.26252341
H        0.47617542      -0.77875204       3.08399363        0      -0.15982279      -0.26302157      -0.17106696       1.07090712       0.54326314       0.35516500
H       -0.89148629       0.37486489       2.69534854        0       0.02873514       0.38347443      -0.34558724       1.21652818      -0.29979137      -0.39086878
H       -0.73944266      -1.22310136       2.06551629        0       0.19690986       0.02410390       0.14902249      -0.45431030      -0.53941941      -0.84297502
H        1.01941819       0.39046340      -2.95372377        0       0.04442223       0.36753016      -0.34324868       0.85726810       0.28414494      -0.68174267
H       -0.21400009      -0.64241305      -2.34718925        0      -0.00594356      -0.02000628      -0.39176269      -0.92775065      -0.17263997      -0.36799625
H       -0.48051707       1.27757980      -2.47714608        0       0.48520126       0.15879304       0.02163439       0.14023677      -1.46462512      -0.88023263
12
Properties=species:S:1:pos:R:3:molID:I:1:momenta:R:3:forces:R:3 Nmols=1 Comp=DMC(1) energy=-589.197021484375 free_energy=-589.197021484375 stress="0.0 0.0 0.0 0.0 0.0 0.0 0.0 0.0 0.0" pbc="F F F"
C       -0.12684393       0.03099563       0.05854102        0      -1.63561103       0.14604081       0.23809547       1.21641922      -1.68285036      -1.53324986
O       -1.10159171      -0.66911634      -0.14060065        0       1.43595917       0.40898302       0.55753578       0.87976998       1.19380784       1.05155933
O        0.66552114       0.07881269       1.24547347        0       1.00463191      -0.81357686       0.03190078      -1.96613503       0.04317564      -3.55817509
O        0.51887311       0.59424897      -0.99748511        0      -1.51759253      -0.10402465       0.28223899      -0.08599514       0.07684714      -0.51330173
C       -0.11853553      -0.41296869       2.30664724        0       0.19473103      -1.24166525       0.53219546       1.44254029       1.87201166       0.98411071
C        0.18200538       0.38181928      -2.42721016        0       0.30562608       0.96058599      -1.40110491      -1.07721877       2.27252555       0.96249354
H        0.63491368      -0.63300709       3.05330755        0      -0.03071899       0.38430400      -0.21904858      -0.13137513      -0.72293556       0.27977642
H       -0.59828156       0.50976341       2.67230185        0       0.18025642       0.07839760       0.30683689      -0.89178336      -0.74680787       0.23824646
H       -0.70016156      -1.23127006       1.95605703        0       0.11751778       0.22864192      -0.03610655      -0.63110739      -0.35898185       0.35020515
H        1.03825752       0.46076262      -3.02678852        0       0.29666597      -0.28586667       0.23014111       1.75204849      -0.62050641       0.00766465
H       -0.43218955      -0.42775373      -2.72528634        0      -0.15174051       0.38581780      -0.25134715      -0.29317316      -1.02850771       0.72538406
H       -0.33520994       1.29137649      -2.82181888        0      -0.19972534      -0.14763779      -0.27133706      -0.21399021      -0.29777825       1.00528646
12
Properties=species:S:1:pos:R:3:molID:I:1:momenta:R:3:forces:R:3 Nmols=1 Comp=DMC(1) energy=-589.3117065429688 free_energy=-589.3117065429688 stress="0.0 0.0 0.0 0.0 0.0 0.0 0.0 0.0 0.0" pbc="F F F"
C       -0.11598673       0.01664251       0.02604143        0       0.95640266      -0.57145393      -0.96247451      -0.28839493      -2.06078410       0.51455569
O       -1.07990876      -0.68109616      -0.09091567        0      -0.84109866      -0.74254069       0.86018661      -0.99085850      -0.22350365       0.48408455
O        0.64228843       0.06285416       1.18211975        0      -1.19210723       0.58813598      -1.38302318      -1.00634563       0.52045530      -0.29311198
O        0.41360363       0.58666768      -0.99508939        0      -1.72112696       0.12774830      -0.39175931       1.63414025       2.30284381      -1.43627584
C       -0.00013824      -0.43248834       2.37542076        0       2.42148768      -0.47133484       0.96178304      -0.79636365      -0.00210452       0.13548079
C        0.17543165       0.50425488      -2.50489555        0      -0.00470478       0.81239423      -0.09671058      -0.71173006      -1.12831640       3.18259287
H        0.78596815      -0.82487838       3.03651449        0      -0.10837563      -0.43031218      -0.33225398      -0.31887227       0.27731681      -0.44880643
H       -0.66517882       0.29150632       2.91563129        0      -0.06518101      -0.02976798       0.14742293       1.10935199       0.17270589      -0.52744043
H       -0.74475263      -1.19676221       2.11992527        0       0.24321742       0.23045761       0.46530324       0.52051151      -0.33018684      -0.20482984
H        1.16792321       0.27737666      -2.73910857        0      -0.15126744      -0.00005414       0.18359857       1.26889384       0.78177810      -1.12791181
H       -0.32946304      -0.42689793      -2.67758416        0       0.30809293       0.00099297       0.33536560      -0.91480643      -0.21670598      -0.18142949
H       -0.39356674       1.38008621      -2.78404067        0       0.15466075       0.48573470       0.21256178       0.49447483      -0.09349895      -0.09690797
12
Properties=species:S:1:pos:R:3:molID:I:1:momenta:R:3:forces:R:3 Nmols=1 Comp=DMC(1) energy=-589.4637451171875 free_energy=-589.4637451171875 stress="0.0 0.0 0.0 0.0 0.0 0.0 0.0 0.0 0.0" pbc="F F F"
C       -0.12739343      -0.12795889      -0.02313587        0      -0.75684703      -2.07275368       0.06967325       0.32247996       1.60795248       0.31269205
O       -1.13561916      -0.73337812      -0.02801362        0      -1.23565255      -1.08434108       0.41925366      -1.26280487      -1.34440684      -0.74156487
O        0.54296994       0.11125267       1.12995390        0      -1.68666623       0.72234749      -0.55007291       1.10788965       0.20372610      -0.49581450
O        0.34967900       0.65917772      -1.04170239        0      -0.18844824       1.65517004      -0.64945959       1.21999049      -0.34251094       2.47127652
C        0.16733916      -0.44312813       2.40585140        0       1.40039660      -0.95949464      -0.26572133      -0.87787342      -2.03451991      -1.45879173
C        0.22905181       0.54014323      -2.42365451        0       1.70929976      -0.29052577       1.62312508      -0.78241265       0.27827936      -0.41231245
H        0.98779131      -1.03884121       2.83923610        0       0.29778237       0.25734730      -0.32190996       0.12797755       0.92118919      -0.16410552
H       -0.18217907       0.39060473       2.98872570        0       0.67846911       0.43607792       0.22580994      -0.04816812      -0.13849598       0.33758783
H       -0.60017216      -1.28114396       2.22764386        0       0.26497218       0.21041058      -0.09792706       0.40363565       1.44765854       0.24797818
H        1.15034444       0.55956276      -2.98788403        0      -0.32974077       0.39165108      -0.01309941       0.63711500      -0.93651694       0.41525930
H       -0.41146506      -0.32189850      -2.67233552        0      -0.22452040       0.54147727      -0.23363373       0.18170178       0.56829095      -0.22324167
H       -0.08865099       1.55039109      -2.67974511        0       0.07095511       0.19263360      -0.20603772      -1.02953136      -0.23064536      -0.28896296
12
Properties=species:S:1:pos:R:3:molID:I:1:momenta:R:3:forces:R:3 Nmols=1 Comp=DMC(1) energy=-588.9906005859375 free_energy=-588.9906005859375 stress="0.0 0.0 0.0 0.0 0.0 0.0 0.0 0.0 0.0" pbc="F F F"
C       -0.16515641      -0.16026377      -0.01493352        0      -0.98964574       0.92171016       0.33449558      -2.84071016       0.06309581      -0.81307107
O       -1.18570410      -0.85034604      -0.01213552        0      -0.43036506      -1.89751660      -0.29389646       2.66399074       1.33271945      -0.91972774
O        0.49285031       0.13220086       1.07313185        0      -0.32453840       0.58558707      -1.33113245       0.95277888       0.04107827       0.20774674
O        0.33585518       0.72750492      -0.99138491        0       0.10800555       0.15174599       2.12064819      -0.18976308      -1.96597815       1.34880567
C        0.25717700      -0.46948560       2.37436984        0       1.12526609      -0.27203292      -1.08402013       0.71449918       0.41276860      -1.34809995
C        0.28889726       0.58361701      -2.39189931        0      -0.13909962       1.21882163      -0.76856850      -0.48466611      -1.10560310      -1.38684726
H        1.28723191      -0.80351942       2.63221124        0       0.06912637      -0.11641328      -0.29664538      -1.15979242      -0.90904027      -0.04360342
H        0.15919943       0.40498607       2.96483539        0       0.01495094       0.19451296       0.07556977      -0.74414408       0.59072113       0.93548262
H       -0.67346844      -1.08456912       2.34583311        0      -0.00094667       0.03815580       0.35727875       1.22850990       0.14170629       0.21758291
H        1.29157162       0.47976005      -2.93750780        0      -0.07187890      -0.57010614       0.60425148      -1.33237326      -0.09494792       1.31613326
H       -0.54313636      -0.00773909      -2.87258918        0       0.31516372      -0.35138191       0.02098971       1.05329657      -1.02927256       1.00338769
H       -0.16115540       1.47476595      -2.67349834        0       0.32396155       0.09691742       0.26102976       0.13837387       2.52275276      -0.51778936
12
Properties=species:S:1:pos:R:3:molID:I:1:momenta:R:3:forces:R:3 Nmols=1 Comp=DMC(1) energy=-588.4669189453125 free_energy=-588.4669189453125 stress="0.0 0.0 0.0 0.0 0.0 0.0 0.0 0.0 0.0" pbc="F F F"
C       -0.32067344      -0.09706125      -0.02186511        0      -1.77706766       0.77167434       0.07369642       2.63893056       0.67411649       0.56145847
O       -1.14668578      -0.92120917      -0.06175071        0       1.37691309      -1.01548812      -1.41241651      -1.44551861      -0.64055586      -0.52603304
O        0.49780786       0.17731461       1.01620469        0      -0.23225697       0.51421514      -0.20622124       0.02494115      -0.27601063       1.26476097
O        0.31274842       0.69945393      -0.86534048        0      -1.12330734      -0.33638078       1.27263473      -1.52533209       1.36476421      -2.33277893
C        0.35303841      -0.42725725       2.26859677        0       1.31232907       0.59197008      -1.27843857      -0.68976617      -4.16343975      -0.01019144
C        0.26987250       0.63950366      -2.38595174        0      -0.04694909      -0.42734959       1.75771807       2.38561368      -4.26047373       3.77833080
H        1.09906977      -1.23855543       2.50004979        0      -0.23103869      -0.28119773      -0.06753499       0.54327857       1.49953198      -0.39055133
H        0.13878891       0.28275317       2.96779104        0       0.17334739      -0.09955764       0.05551221       0.38037044       2.17502880       1.86260629
H       -0.50154208      -1.12247660       2.44684857        0      -0.00732153      -0.07816032      -0.30841846      -0.54721683       0.48409280      -1.13151824
H        1.30985815       0.15436925      -2.34630071        0       0.20991105       0.56043132       0.18089804      -0.44772857       1.48255980      -1.61745274
H       -0.26778767      -0.32585767      -2.56516851        0      -0.14311887       0.16641094       0.25365193      -0.91130757       1.55091941      -0.93345994
H        0.20476820       1.63867202      -2.71609869        0       0.48855943      -0.36656748      -0.32108135      -0.40626386       0.10946703      -0.52517140
12
Properties=species:S:1:pos:R:3:molID:I:1:momenta:R:3:forces:R:3 Nmols=1 Comp=DMC(1) energy=-588.4616088867188 free_energy=-588.4616088867188 stress="0.0 0.0 0.0 0.0 0.0 0.0 0.0 0.0 0.0" pbc="F F F"
C       -0.34581359      -0.05683595       0.02825681        0       0.62874100      -0.48193692       1.20707583       1.37784982      -1.98683810      -0.62008572
O       -1.10095484      -0.96101730      -0.14642080        0       0.51698685      -0.14392232      -1.11609985      -0.51258838       0.49581987       0.59711146
O        0.50727129       0.20622508       1.02029536        0       0.24540919       0.72332627       0.54951392       0.55872011       1.22567880      -0.18634284
O        0.19837952       0.71249496      -0.86669602        0      -2.12431393       1.32228601      -1.33650984       0.01539159       2.89977288      -1.07180381
C        0.39820191      -0.44681096       2.23723362        0      -0.08287116      -0.46910388       0.09172062       0.37206602      -1.74549794      -1.06344163
C        0.30530265       0.54781191      -2.19991860        0       0.74447442      -0.76510280       1.06394485      -0.08297399       1.25044215      -5.06677151
H        1.30339794      -1.10000972       2.31508761        0       0.44186720       0.22252028      -0.25465183      -1.09389997      -0.12469947       0.10280764
H        0.52779797       0.31298546       2.92528219        0       0.50235781      -0.28806680      -0.16911863      -0.31419489       1.15981698       1.83737326
H       -0.57788513      -0.86772457       2.05663574        0      -0.07804727       0.22843945      -0.11848016      -0.13136345      -1.03459990       1.72132277
H        1.39485259       0.48836851      -2.52634711        0      -0.12753110      -0.30937482      -0.02393314      -1.20917535      -0.98008490       0.81005824
H       -0.52996777       0.02086109      -2.72413378        0       0.08044206       0.18836501      -0.16918440       0.72835881      -1.27697444       1.00285149
H        0.09917246       1.44375120      -2.93156823        0      -0.74751540      -0.22742917       0.27572300       0.29180908       0.11716419       1.93692040
12
Properties=species:S:1:pos:R:3:molID:I:1:momenta:R:3:forces:R:3 Nmols=1 Comp=DMC(1) energy=-588.6305541992188 free_energy=-588.6305541992188 stress="0.0 0.0 0.0 0.0 0.0 0.0 0.0 0.0 0.0" pbc="F F F"
C       -0.23372496      -0.14927425       0.03170910        0       1.54900387      -1.21902838      -1.17697712      -0.33711648       1.92478800      -2.08954501
O       -1.08518084      -0.95909885      -0.18776119        0       0.41166243       0.05237698      -0.36993920       1.14273405       0.20123923       0.93124640
O        0.50852618       0.25127356       1.04252261        0      -0.64278872       0.77497691       0.50287305      -1.01309609      -0.97605473       0.85871500
O        0.09329210       0.85621487      -0.88210570        0      -1.42802880       2.29180381       1.49134118       0.16493425      -2.25733781       1.08891237
C        0.42662881      -0.48459875       2.24591559        0       0.40089155       0.38823254       1.03653413      -0.15121716      -0.44330204       0.77415043
C        0.28348962       0.50409157      -2.26769074        0      -1.01890429      -0.63371600      -1.87408056      -0.14136189      -0.02528638       0.58552420
H        1.21372371      -1.23984461       2.15519519        0      -0.00163518      -0.71542477       0.07882202      -0.30260190      -0.09109321       0.56972575
H        0.57909233       0.20990731       3.05137324        0      -0.10194634      -0.43701209      -0.36032973       0.85262126       0.49081689       0.16987443
H       -0.55631377      -0.88620679       2.57404227        0       0.35423447      -0.13698982       0.59034665       0.29504400      -0.24677628      -1.13809013
H        1.35836292       0.04321386      -2.43321768        0      -0.06272316       0.03839639       0.01834760      -1.41199660       2.01499891       0.28847441
H       -0.28035747      -0.45778790      -2.53490344        0       0.17259090      -0.37467445       0.19218873      -0.35422856       1.81467450       0.22874430
H       -0.12074834       1.60917250      -2.43553765        0       0.36764309      -0.02894067      -0.12912652       1.25628519      -2.40666771      -2.26773262
12
Properties=species:S:1:pos:R:3:molID:I:1:momenta:R:3:forces:R:3 Nmols=1 Comp=DMC(1) energy=-588.5005493164062 free_energy=-588.5005493164062 stress="0.0 0.0 0.0 0.0 0.0 0.0 0.0 0.0 0.0" pbc="F F F"
C       -0.15311811      -0.15024916      -0.09203719        0       0.36874963       1.19877064      -1.05001950      -1.84840965       0.76846600       3.45669508
O       -1.01087893      -0.97106780      -0.19846940        0       1.43815596      -0.17065341       0.11943527       0.71833915      -0.87978941      -0.41004860
O        0.45739376       0.20982523       1.09018920        0      -0.54026499      -1.82078425       0.97946574       0.42321241      -0.47056097      -0.24901462
O        0.00528674       0.90614269      -0.82123747        0      -1.44212853       0.05353560      -0.32950935       0.96811569       0.15631825      -4.50617409
C        0.49231380      -0.48945362       2.31704330        0       0.72338078       0.65283985       1.72905492      -1.19321716       1.57071805       2.02492428
C        0.19463733       0.49740423      -2.32639314        0      -0.74444600       0.89777859       0.31033747       0.84436274       1.13630652       0.71384954
H        1.11193274      -1.33023405       2.36003222        0       0.43226222      -0.14672525       0.00674978       1.04731727      -1.18675148      -0.60914528
H        0.97580059       0.28196027       3.04939093        0       0.48584784      -0.42152481      -0.41436495      -1.00303435      -1.14727843      -1.24844611
H       -0.50851462      -0.83801149       2.76173854        0      -0.22320750       0.29315861      -0.29582853       1.01215851       0.89554977      -1.03535640
H        1.34266076       0.50673353      -2.36459140        0      -0.08504790       0.13803260       0.02285435      -1.59332633      -1.18450642       0.25658488
H       -0.51997264      -0.37624767      -2.38833713        0      -0.23027328      -0.02083145      -0.09792039       1.56271040       0.95508373      -0.43447387
H        0.09399833       1.19173597      -3.27001491        0      -0.18302842      -0.65359628      -0.98025470      -0.93822873      -0.61355579       2.04060483
12
Properties=species:S:1:pos:R:3:molID:I:1:momenta:R:3:forces:R:3 Nmols=1 Comp=DMC(1) energy=-588.4935913085938 free_energy=-588.4935913085938 stress="0.0 0.0 0.0 0.0 0.0 0.0 0.0 0.0 0.0" pbc="F F F"
C       -0.16826596      -0.07901078      -0.03585926        0      -0.86041998       0.55919592       1.85417310      -0.91964835       0.12436128       0.62179679
O       -0.90376560      -1.00295679      -0.20025090        0       2.19606129      -0.84788966      -0.28151670      -0.11793786      -0.47071600      -0.62795138
O        0.46493315       0.10434325       1.13697183        0       0.85474702      -0.91851191      -0.10207982       1.42818677       2.42974854      -2.19280648
O       -0.06769886       0.95503533      -0.97043971        0      -1.06341956       1.16379192      -3.19732808      -0.00249892      -0.11055270       0.87292182
C        0.53466554      -0.51638394       2.43273876        0       0.46195113      -0.34269107       0.84605798       1.42160189       2.61313629      -1.04452169
C        0.11567421       0.57968233      -2.32796127        0      -0.37915144       0.35251014       0.49830976       1.10977292      -3.84355712      -0.33169776
H        1.10423723      -1.37699532       2.24474949        0      -0.37120841      -0.27817066      -0.10648166       0.24229927      -1.38189077       0.49550146
H        1.21738254       0.27806064       2.97265381        0      -0.28037416       0.08507309       0.02007796      -1.61305857      -1.59509826      -0.57024473
H       -0.48670659      -0.51683983       2.64953999        0      -0.09805254       0.03782788       0.40580214      -0.97692037      -0.64711189       1.53603721
H        1.26319587       0.44569070      -2.41146845        0      -0.09072392      -0.00204696      -0.15297965      -1.74283266       0.09462994      -0.23609158
H       -0.44505890      -0.45103488      -2.45737786        0       0.00263190      -0.51061696       0.12035341       1.24498427       1.14396429       0.66787946
H       -0.23787133       0.95086933      -3.29011920        0      -0.37204160       0.70152863       0.09561168      -0.07394817       1.64308643       0.80917668
12
Properties=species:S:1:pos:R:3:molID:I:1:momenta:R:3:forces:R:3 Nmols=1 Comp=DMC(1) energy=-588.1990966796875 free_energy=-588.1990966796875 stress="0.0 0.0 0.0 0.0 0.0 0.0 0.0 0.0 0.0" pbc="F F F"
C       -0.24308044      -0.02808199       0.08886762        0      -1.25409608       0.17770245       0.26818501       1.34867620      -0.35884047      -3.14254642
O       -0.77428874      -1.04611560      -0.23145145        0       2.02265343      -0.88422330       0.14479407      -0.83576202       0.11728477       0.46066946
O        0.57336232       0.09305484       1.11331298        0       2.44458660       0.64496152      -0.27126964      -0.25333488       0.94016409       1.11206615
O       -0.14403120       0.99476859      -1.05598107        0      -1.18808751       0.64298888       1.61599951       0.69048667      -1.50263071       5.39843798
C        0.51256190      -0.53376417       2.44236152        0      -0.94519943      -0.31089055       0.01892965       1.14971280       2.60481620       0.02248040
C        0.06011380       0.55293128      -2.35815139        0      -0.77358928       0.14861047      -1.02357375       0.80040127      -0.94965410       0.05069190
H        0.71496250      -1.56100527       2.39417338        0      -0.14163357       0.03887486       0.15253814       1.60772288      -1.09582996      -0.58506572
H        1.08640410       0.24128801       3.10109140        0       0.44612302      -0.10019071       0.01222298      -0.30792296      -1.77296662      -1.48258829