12
Properties=species:S:1:pos:R:3:molID:I:1:momenta:R:3:forces:R:3 Nmols=1 Comp=DMC(1) energy=-585.8257993662517 free_energy=-585.8257993662517 stress="0.0 0.0 0.0 0.0 0.0 0.0 0.0 0.0 0.0" pbc="F F F"
C       -0.06354920       0.02615914       0.03273994        0       0.17844136      -0.34376020       1.07719402       0.56070369      -1.97741653      -1.49576718
O       -1.09745824      -0.56171083      -0.33384407        0      -0.37132631       0.01130763       0.61994678      -1.17968185       0.50265583       4.63897670
O        0.59339279       0.04178514       1.16893291        0      -0.06068457      -0.59711980      -0.95669715       0.53785463       1.38077995      -0.87115298
O        0.70731479       0.58054012      -0.92796504        0      -0.60590825       0.76431855      -0.46687405       1.59593709       0.83661878       0.44810134
C       -0.18480919      -0.38314587       2.27627182        0      -0.04014364      -0.06563936      -0.56096274      -3.07149565      -0.17527486       4.48148514
C        0.11790480       0.31317315      -2.18905210        0       0.29358387      -0.58416592       0.23783068      -2.92709617       1.27662057      -6.67849903
H        0.50081283      -0.52887988       3.16355896        0       0.01339961       0.14254610       0.22731550      -1.57716995      -0.00936748      -2.21995810
H       -0.99130619       0.37122315       2.57026887        0      -0.01864405       0.28794111      -0.37432648       2.05892491      -1.19391682      -0.61019843
H       -0.79898220      -1.19689691       1.93909299        0       0.07867573      -0.13808167       0.14732151       0.75079512      -0.17699533       1.34715097
H        0.82173383       0.39293513      -3.04121518        0       0.06493475       0.18520010      -0.03584277      -0.93180122      -0.47769813       2.24222289
H       -0.51975018      -0.63449883      -2.23208618        0       0.25642326       0.05312722       0.01555753       2.61240677       1.76601145      -1.73198343
H       -0.68493521       1.15580308      -2.35394812        0       0.21124824       0.28432625       0.06953715       1.57062264      -1.75201743       0.44962210
12
Properties=species:S:1:pos:R:3:molID:I:1:momenta:R:3:forces:R:3 Nmols=1 Comp=DMC(1) energy=-587.1974084995709 free_energy=-587.1974084995709 stress="0.0 0.0 0.0 0.0 0.0 0.0 0.0 0.0 0.0" pbc="F F F"
C       -0.05118773      -0.04748007      -0.00277753        0       0.07296941      -1.03679811      -1.54176932       1.38369873       1.66952939      -0.67183140
O       -1.12986867      -0.54963566      -0.18225520        0      -0.70455687      -0.27879805       3.22043669      -0.63687620      -0.63603765      -0.57129551
O        0.61035291       0.01038428       1.15106205        0      -0.28921107      -0.84798428       0.93745765      -0.11203267      -0.55781009       0.24446236
O        0.67094908       0.61626078      -0.94306164        0      -0.72263412       0.28319882      -0.38497644      -1.07619738      -2.05303061      -0.64909049
C       -0.24678066      -0.39296786       2.30694037        0      -0.51811369       0.03545875       0.74922342       1.03077301       2.51833795       1.39248555
C        0.16363894       0.36827703      -2.31521653        0       1.38364972       1.23028506      -2.92647330       0.17426781       1.77166544      -0.71737040
H        0.43722100      -0.46793264       3.15763394        0       0.12948677       0.05418731      -0.14519162      -0.96818433       0.07009250      -0.77907153
H       -0.91049516       0.52544279       2.40412967        0       0.05964436      -0.19253103       0.01554849       0.61693918      -2.74252842       0.32778626
H       -0.65697789      -1.36211158       2.10887049        0       0.09229634       0.35582478      -0.12032695      -0.59954336       0.52509879      -0.01238935
H        0.96567068       0.46344832      -3.00773124        0       0.07500224       0.22584332       0.14662973      -0.18413264       0.69468711       0.45084652
H       -0.01476194      -0.66775033      -2.54398886        0       0.41794144       0.57140082       0.31901461      -0.86108709       0.86215515       1.30917508
H       -0.64001845       1.15235689      -2.39692323        0       0.00352547      -0.40008739      -0.26957296       1.23237494      -2.12215956      -0.32370708
12
Properties=species:S:1:pos:R:3:molID:I:1:momenta:R:3:forces:R:3 Nmols=1 Comp=DMC(1) energy=-586.5434829786242 free_energy=-586.5434829786242 stress="0.0 0.0 0.0 0.0 0.0 0.0 0.0 0.0 0.0" pbc="F F F"
C       -0.04596199      -0.06888591      -0.08809685        0      -0.46887860       0.36735495      -0.07754774      -2.38929465      -0.20317293       3.51886947
O       -1.16146596      -0.57626189      -0.05365699        0      -0.05390819      -0.79242610       0.65127617       0.76330008       0.11815382      -2.01296298
O        0.58183634      -0.06799643       1.16317238        0      -1.04630756      -1.38848099      -0.20387395      -0.09903244       0.57195042      -0.52371428
O        0.61886302       0.59101040      -0.97341993        0      -0.58255125      -0.18078522      -0.76019970       0.53119924       0.14101053      -0.44765576
C       -0.23491901      -0.36277830       2.33483231        0      -0.51035045       0.11838510       0.28893602       1.64623866       2.62258831       0.64555323
C        0.30569226       0.49426700      -2.42765871        0       1.88034518       0.66018464      -0.14298999       0.56352854       0.61214364       4.84227574
H        0.39738299      -0.44019911       3.19518821        0       0.06254082       0.03910153       0.18330751       1.05578878      -0.24299475      -0.18984706
H       -0.99366970       0.33623951       2.57831025        0       0.29841141      -0.15297111      -0.08393203       0.09065794       1.12412947      -0.83733475
H       -0.84367812      -1.14314645       2.17736053        0       0.02653030       0.22065126       0.18637221      -1.79592422      -3.63836471      -0.65269403
H        1.06297877       1.09105107      -2.81942174        0      -0.10176953       0.75205671       0.37386967       2.15909048       0.86661731      -1.97150929
H        0.05505986      -0.49542467      -2.50692303        0       0.26631778       0.55087417      -0.48266394       0.16726077      -3.56638942      -1.73429581
H       -0.63440532       0.81166523      -2.68867086        0       0.22962009      -0.19394494       0.06744575      -2.69281317       1.59432831      -0.63668449
12
Properties=species:S:1:pos:R:3:molID:I:1:momenta:R:3:forces:R:3 Nmols=1 Comp=DMC(1) energy=-586.884457282941 free_energy=-586.884457282941 stress="0.0 0.0 0.0 0.0 0.0 0.0 0.0 0.0 0.0" pbc="F F F"
C       -0.12985609      -0.04950934      -0.01193833        0      -0.73470704       0.26949711       0.81794279       1.12883524      -0.70014022      -2.59745898
O       -1.18014569      -0.60571298      -0.09460335        0      -1.13660131       0.10875428      -1.64991415      -2.33535240      -0.19354048      -0.90032300
O        0.55492750      -0.13329473       1.13084970        0       0.52020060      -0.83562560      -0.88649752       1.24624997       0.93969918       0.40132156
O        0.57361472       0.58436444      -0.97325606        0      -0.74132836      -0.29523793       1.26450908       0.51158172      -0.65876005       3.44715261
C       -0.26802775      -0.36999787       2.36226355        0      -0.14785231       0.08639300      -0.01536149       5.24201713       0.14791617      -0.22437290
C        0.42989204       0.57570755      -2.40136297        0       0.66177745       0.16332267      -0.10302845      -0.34420941       2.95076852       0.63254143
H        0.56014154      -0.46440926       3.07594349        0       0.23705313      -0.13813077       0.19244940      -1.32494305       0.38099898       0.33629454
H       -0.86369252       0.48155890       2.40318866        0       0.07592934      -0.02961021       0.03917703      -1.91204524       1.26191392       1.08664565
H       -0.72787414      -1.29521865       2.30618974        0       0.07324914      -0.26415211       0.12471145      -1.71545794      -1.57255750      -0.34399006
H        1.08469239       1.35593556      -2.72102281        0       0.36886031       0.43328680      -0.16033495      -0.35560162       0.27772524      -0.37459303
H        0.92346194      -0.17047145      -2.90301724        0       1.11919604       0.62412411       0.26363664       0.28740016      -2.33238218      -0.64267293
H       -0.61324459       0.75653721      -2.56820614        0      -0.29577698      -0.12262134       0.11271017      -0.42847456      -0.50164157      -0.82054488
12
Properties=species:S:1:pos:R:3:molID:I:1:momenta:R:3:forces:R:3 Nmols=1 Comp=DMC(1) energy=-586.339809103322 free_energy=-586.339809103322 stress="0.0 0.0 0.0 0.0 0.0 0.0 0.0 0.0 0.0" pbc="F F F"
C       -0.18175813      -0.09034151      -0.03656078        0      -0.66965196      -1.50792769      -0.63624938      -0.11566117      -1.39738486       0.75781280
O       -1.27141642      -0.61170445      -0.18131388        0      -1.19896304      -0.19123635      -0.65229915       1.90143274       0.77252738       1.16229687
O        0.58655931      -0.16614532       1.13558308        0      -0.26552350      -0.01353795       0.56414622      -1.98874842       0.61138869      -2.55305155
O        0.53205003       0.60260024      -0.87672000        0      -0.23269244       1.44766087       0.76503688       1.12947361       1.59633920      -4.30916445
C       -0.19391326      -0.36841937       2.35069979        0       1.00736029      -0.48695031      -0.56283395      -0.29634010      -0.30421102       2.37833541
C        0.50666826       0.62901784      -2.37661780        0       0.93405870       0.23414536       1.45386891      -1.27158115       0.65135427      -0.17671657
H        0.46532463      -0.40524437       3.27983176        0       0.03298737       0.04257182       0.16988087      -1.26179658      -0.32920583      -3.04652776
H       -0.83943575       0.47726828       2.51821987        0       0.10088959       0.27515145      -0.19720416       0.35193495      -0.54347067      -0.19030908
H       -0.78080250      -1.26236656       2.11724779        0      -0.16004605       0.22385483      -0.29263947       0.40207544       0.52207771       1.15921571
H        1.03869326       1.53538836      -2.82491863        0      -0.21648993       0.33067054      -0.24730787      -2.56333525      -2.36165961       2.37664657
H        1.35741319       0.13908386      -2.71936809        0       0.12657664       0.04075674      -0.13161005      -0.36204176      -0.70447330       0.15171618
H       -0.53843815       0.29473942      -2.75828482        0       0.54149433      -0.39515931      -0.23278885       4.07458770       1.48671804       2.28974585
12
Properties=species:S:1:pos:R:3:molID:I:1:momenta:R:3:forces:R:3 Nmols=1 Comp=DMC(1) energy=-586.2210861023702 free_energy=-586.2210861023702 stress="0.0 0.0 0.0 0.0 0.0 0.0 0.0 0.0 0.0" pbc="F F F"
C       -0.18636100      -0.15420895      -0.07164686        0       0.45296008       0.79204209      -0.53570283      -1.55498448       1.60052736       0.22347939
O       -1.29837138      -0.59873696      -0.19396304        0       0.42813728       0.16674134      -0.03883485       0.73082697      -0.64483177      -0.48776789
O        0.54363585      -0.17294412       1.05347436        0      -0.68983018      -0.44171369      -1.80834107       0.15638543      -1.51634495       2.60659296
O        0.52763258       0.67125720      -0.85029829        0      -0.43492576       0.58358748       1.72171329       1.32400511       0.32707645       4.16671710
C       -0.20061458      -0.40074258       2.30208697        0      -0.48445802      -0.87327338      -0.39405614       2.01750806      -0.24340409       2.83008554
C        0.63612869       0.63829167      -2.25570638        0       0.79446794      -0.42196040       0.13713185      -7.55009740       2.66806590      -2.70500089
H        0.55198355      -0.61382552       3.13058832        0      -0.08510248      -0.17142532      -0.72620539      -1.42797057       0.57588375      -2.42308318
H       -0.71762523       0.50013467       2.50113655        0       0.05089000       0.16203567       0.25069496      -0.28728150       0.34480287       0.23164352
H       -0.88369896      -1.21231059       2.27207247        0      -0.02194592       0.07857283       0.14720789       0.06758889      -0.10389117      -1.11206024
H        0.26605549       1.74511407      -2.47948394        0      -0.48675590      -0.17780924       0.59371703       2.76266422      -3.66173707      -0.63534942
H        1.47359772       0.09682137      -2.50510624        0       0.20737486       0.30832067       0.23677854       2.19630159       0.07383750      -1.52290037
H       -0.26254876       0.03630994      -2.55855117        0       0.26918809      -0.00511804       0.41589672       1.56505367       0.58001521      -1.17235654
12
Properties=species:S:1:pos:R:3:molID:I:1:momenta:R:3:forces:R:3 Nmols=1 Comp=DMC(1) energy=-586.3754587045162 free_energy=-586.3754587045162 stress="0.0 0.0 0.0 0.0 0.0 0.0 0.0 0.0 0.0" pbc="F F F"
C       -0.23088711      -0.06315146      -0.08929258        0      -0.04025820       1.29785075       0.25786523       1.88660476       0.10928087       0.50066557
O       -1.28787791      -0.60762311      -0.24008104        0      -0.60425604      -0.47465578      -1.38961491       0.89490141       1.17554719      -0.49918986
O        0.51198500      -0.24010807       1.06832943        0      -0.71011536      -1.14807190       1.25525361      -0.32390373       0.75994199      -0.29099850
O        0.58861505       0.73331946      -0.78459288        0       1.94780986       0.86114013      -0.37527643      -2.45171923      -2.37458393      -2.12055082
C       -0.23994619      -0.42918809       2.28588540        0       0.59601126      -0.94835088       0.19281012       1.36080422       2.10359662       0.55046465
C        0.61829394       0.57451918      -2.23333226        0      -1.16096167      -0.57389876       0.71417655       0.89484174       6.54370001       1.20009652
H        0.56494531      -0.84167463       2.76528039        0      -0.68389041       0.06442563      -0.29576690       0.92130943      -0.37517404       0.91360259
H       -0.58707491       0.51573844       2.72449856        0      -0.09745635       0.01780896       0.19388773       0.02261324      -1.02759787      -0.54869989
H       -0.97934772      -1.11615715       2.10756897        0      -0.23023969       0.31756933      -0.12177999      -2.87854612      -1.74509646       0.30877470
H        0.37120085       1.63119761      -2.30002667        0       0.05761535      -0.38953246      -0.06879827      -0.68646171      -2.07178759       0.44561943
H        1.55618016       0.72985663      -2.62688467        0       0.07228663       0.73577768      -0.39250506       1.96362088      -1.00389013      -0.50597042
H        0.09101868      -0.16351389      -2.73586636        0       0.85345463       0.23993729       0.02974832      -1.60406490      -2.09393665       0.04618602
12
Properties=species:S:1:pos:R:3:molID:I:1:momenta:R:3:forces:R:3 Nmols=1 Comp=DMC(1) energy=-586.4698212221606 free_energy=-586.4698212221606 stress="0.0 0.0 0.0 0.0 0.0 0.0 0.0 0.0 0.0" pbc="F F F"
C       -0.18990841      -0.04733967      -0.06616938        0       0.62515876      -0.22395036       0.51287462      -0.31600346      -1.04335111       0.03385905
O       -1.23453464      -0.55439873      -0.34586055        0       1.32164451       1.61458339      -1.94860637      -1.49698582       0.08252890      -0.78052529
O        0.44242145      -0.27111497       1.10060373        0      -1.12015930       0.56720643       0.03101649       0.68599813       0.89049660       2.58701191
O        0.60556809       0.73553639      -0.82865929        0      -0.52851960      -0.47176338       1.40572636       3.15925947      -0.27204407       8.94293449
C       -0.27582506      -0.50084856       2.33046334        0      -0.47121175      -1.36078776       1.06694826      -0.19625416       6.63870312      -1.21816037
C        0.65372809       0.61458166      -2.23181701        0       0.26374337       1.46086435      -1.15605730       0.02002049       4.56223400      -2.78757172
H        0.44195620      -0.98316950       2.80849461        0      -0.25507863      -0.38595303       0.25760049       3.97485330      -3.07130599       2.73240771
H       -0.63292140       0.39873417       2.91099768        0       0.03252295       0.20999847       0.08634369       1.39033897      -1.08555931      -1.72749815
H       -1.18260917      -0.90169672       2.23156553        0      -0.31282444      -0.15215558       0.00261358      -4.53011934      -2.87120185      -1.31995020
H       -0.05704876       1.31797153      -1.76266134        0      -0.43871442      -0.82389677       0.33702317       0.00268130      -0.52209494      -4.92850440
H        1.58683200       0.98896943      -2.70193289        0       0.69436378       0.10263729      -0.56246645      -2.27997792      -1.16730139       0.61637989
H        0.31665199      -0.31016249      -2.51461134        0       0.18907477      -0.53678304      -0.03301656      -0.41381098      -2.14110396      -2.15038292
12
Properties=species:S:1:pos:R:3:molID:I:1:momenta:R:3:forces:R:3 Nmols=1 Comp=DMC(1) energy=-586.8354740913039 free_energy=-586.8354740913039 stress="0.0 0.0 0.0 0.0 0.0 0.0 0.0 0.0 0.0" pbc="F F F"
C       -0.15235449      -0.12907673      -0.01778438        0       0.31214852      -0.98128962       0.02687621      -1.16364789       0.88494203       0.15260983
O       -1.21314422      -0.50856686      -0.50237679        0      -0.21143484       0.07637241      -2.70050573       2.20993982      -0.48421112       2.29684799
O        0.43357304      -0.25394730       1.18689905        0       0.40316638      -0.02022366       2.26667328      -0.86752019      -0.90619052      -2.82739503
O        0.60127948       0.74519421      -0.78386408        0       0.01402620       0.42620694      -2.61777365       0.60728839      -0.43705841      -1.83014703
C       -0.31949359      -0.56697043       2.42542885        0       0.38189459       0.13050398       0.27996468      -1.99425789       4.09541420      -1.76180847
C        0.64801437       0.67623257      -2.30908989        0      -0.09291911       0.39829488       0.85681441       1.32897364       0.65801574       1.09907555
H        0.08021472      -1.17309164       3.18171505        0      -0.38434731      -0.16321295       0.60924582       1.12606554      -0.28370328      -0.35492560
H       -0.33907422       0.53833759       2.76308545        0      -0.07617737      -0.11819392       0.12945715      -0.67426945      -3.46294076      -0.09556712
H       -1.24820685      -1.06433997       2.07038659        0      -0.31201027      -0.35495951      -0.10410316       0.96648945       0.90694795       0.67294254
H       -0.21586391       1.16148735      -1.84475286        0       0.42727562       0.21464677       0.74911502       2.26711030      -0.97550902      -0.68512842
H        1.51739273       1.22287102      -2.80283086        0      -0.68417094       0.45948306       0.54912050      -3.02095656      -1.17435469       2.26252689
H        0.71905279      -0.32536057      -2.73727342        0       0.22254853      -0.06762839      -0.04488453      -0.78521515       1.17864788       1.07096888
12
Properties=species:S:1:pos:R:3:molID:I:1:momenta:R:3:forces:R:3 Nmols=1 Comp=DMC(1) energy=-586.3466041101314 free_energy=-586.3466041101314 stress="0.0 0.0 0.0 0.0 0.0 0.0 0.0 0.0 0.0" pbc="F F F"
C       -0.16322136      -0.13526337       0.01048547        0       0.24806406       0.43418529      -0.23955461       1.40605308       0.38181214      -1.26897992
O       -1.12516801      -0.54271932      -0.57373755        0       1.38167191      -1.08719579      -0.14411028      -0.98700562      -1.04063555       1.16017082
O        0.42803940      -0.26995129       1.18574399        0      -0.60965887      -0.44022548      -1.46936401      -1.44065294       0.28301699       0.03699081
O        0.63455601       0.70216252      -0.78662227        0       1.12272353      -0.84824329       1.42081645       0.31011501       1.52357213      -2.10067013
C       -0.34741063      -0.54040952       2.40429966        0      -0.98229194       0.90925866      -0.10477142      -3.52775202      -0.26142784       1.58999528
C        0.61288557       0.75671741      -2.22744859        0      -0.71568482       1.36154145       0.88977113       1.13768644      -5.55228682       3.06588017
H        0.07771541      -1.27269414       3.08365153        0       0.59871654      -0.24300162      -0.39890471       0.47163517       1.02923392      -1.79678066
H       -0.53907233       0.38110000       3.03328568        0      -0.12474235      -0.34818841      -0.27685720       1.03751473      -1.83205759      -2.41437259
H       -1.34674130      -0.97173945       2.03292829        0      -0.27210218       0.33171643       0.01704958       2.24473960       1.11248559       0.62730541
H       -0.21563734       1.13427173      -1.99578638        0      -0.36067334      -0.45052853       0.47019166      -5.18838871       2.22492121       4.38653755
H        1.07703253       1.57950012      -2.59893664        0      -0.03126629      -0.06542660      -0.31248434       3.73353272       3.70669448      -2.43183143
H        0.48668338      -0.18173646      -2.71889062        0      -0.25475624       0.44610789       0.14821776       0.80252254      -1.57532865      -0.85424531
12
Properties=species:S:1:pos:R:3:molID:I:1:momenta:R:3:forces:R:3 Nmols=1 Comp=DMC(1) energy=-586.5497251947081 free_energy=-586.5497251947081 stress="0.0 0.0 0.0 0.0 0.0 0.0 0.0 0.0 0.0" pbc="F F F"
C       -0.12048741      -0.11686514      -0.07567864        0       0.61927014      -0.25512073      -1.60944293       0.35428791      -1.38699446      -0.18789281
O       -1.09405974      -0.67454622      -0.54587100        0       0.13947301      -2.33976585       0.86748997       1.46247998       1.50956094       0.39296567
O        0.38149390      -0.26643524       1.15840572        0      -0.10768733      -0.22406715       1.05615009       0.62437576      -0.87606132       1.15302900
O        0.76279368       0.71294668      -0.68258375        0       2.24518405       0.79277325       1.17122694      -6.08098971       0.68238381      -5.97503330
C       -0.42556139      -0.52548824       2.32120552        0      -1.23574422       0.89921166      -1.43574637      -2.38623116      -0.67164390      -1.06752833
C        0.45790681       0.84714911      -2.19183292        0      -2.05832507       0.82525265       0.23082821       3.39416119       4.86373633       5.15519076
H        0.32753564      -1.17444513       2.56899451        0       0.04046824       0.12985513      -0.44059977      -0.02583947      -0.27133550      -0.93352611
H       -0.42202729       0.34645946       2.87372865        0       0.19808883      -0.42044028      -0.09198172      -0.64608406       1.62417822       1.92900683
H       -1.49414592      -0.82960561       2.14760245        0       0.05634994      -0.11628796       0.44349682       2.68595767       0.26303099      -0.09362731
H       -0.31582502       1.36218971      -1.57855722        0      -0.02856551       0.75443423      -0.17931042       4.81037088      -2.49543117      -0.41819256
H        1.39258566       1.31557697      -2.63737295        0       0.43484683      -0.10700600       0.04485752      -2.91976886      -0.48814632       1.09678463
H        0.45158721      -0.01824111      -2.72769415        0      -0.30335891       0.06116104      -0.05696833      -1.27272013      -2.75327763      -1.05117649
12
Properties=species:S:1:pos:R:3:molID:I:1:momenta:R:3:forces:R:3 Nmols=1 Comp=DMC(1) energy=-587.3508975564065 free_energy=-587.3508975564065 stress="0.0 0.0 0.0 0.0 0.0 0.0 0.0 0.0 0.0" pbc="F F F"
C       -0.04953688      -0.20028509      -0.11534543        0       0.72836543      -1.25020733       0.70759978      -2.14257588      -0.48447161       1.23700824
O       -1.02420319      -0.77325102      -0.50521312        0       0.91673437      -1.40921894       0.30152528      -1.63387664      -1.29926379      -1.07541369
O        0.42481139      -0.23625640       1.14007795        0       1.59383876       1.64148383      -1.18661201      -0.10862038      -0.94288433       6.00197850
O        0.73197115       0.69922883      -0.71280634        0      -0.56435760      -1.00667497      -0.73442592       3.79474128      -0.23208914       0.82189542
C       -0.49721248      -0.49413172       2.32014559        0      -1.04918732      -1.19129245       0.65143317       2.78194911      -4.42566539      -4.77058145
C        0.41610916       0.97949825      -2.12094822        0       0.44941401       2.25497873       1.40158119       0.06154250       2.04467660      -3.34141190
H        0.11542440      -1.34301431       2.01370079        0      -0.47377693      -0.14881492      -0.17326771       0.55790625       2.80436796       0.06779755
H       -0.55236672       0.23280566       3.04590324        0      -0.31635313       0.35782696       0.46569468       0.90961598       2.49729099       1.97059050
H       -1.44268709      -0.88355998       2.15004211        0      -0.09377580       0.41066329      -0.42275188      -2.29392338       0.06423197      -0.85983496
H        0.09352293       1.66094269      -1.38427395        0       0.06644858       0.00096878      -0.52901413      -0.85199461       0.58661845      -1.96140804
H        1.23117464       1.41049792      -2.80984775        0      -0.38657377      -0.17248769      -0.51885993      -2.86497435      -2.25172746       2.37966105
H       -0.28820712       0.22738855      -2.53860383        0      -0.87077660       0.51277470       0.03709748       1.79021012       1.63891576      -0.47028122
12
Properties=species:S:1:pos:R:3:molID:I:1:momenta:R:3:forces:R:3 Nmols=1 Comp=DMC(1) energy=-587.0887781837575 free_energy=-587.0887781837575 stress="0.0 0.0 0.0 0.0 0.0 0.0 0.0 0.0 0.0" pbc="F F F"
C       -0.04884818      -0.24771390      -0.08462002        0       0.48513960       0.22359465      -0.24108966       1.17457602       1.62274081       0.72846860
O       -0.99636487      -0.89638371      -0.50266835        0       1.15491233      -1.14345036       0.43071019       3.71197880       2.69616514       2.28002762
O        0.49646315      -0.15551925       1.21570707        0       0.10290878       1.16326055       0.80002360      -5.43787557      -3.19050159      -3.27669620
O        0.73798104       0.65919694      -0.80056901        0       0.08130525      -2.02336739      -0.70566496       1.09140275      -6.33250942       6.07911902
C       -0.56110017      -0.55782992       2.24862259        0       0.77849829      -0.28969712      -1.59855269       4.31054991       5.49607075       3.16271060
C        0.33938059       1.15183025      -2.06592096        0      -2.06765100       2.66942933      -0.57452245      -3.93179658      -1.43091338      -4.54988478
H        0.14930514      -1.26789609       2.06790506        0      -0.25171286      -0.15728469       0.51358940       0.95449280      -0.38307051      -1.95579254
H       -0.26917061       0.04409743       3.20808767        0       0.06097448      -0.57553826       0.07420240      -1.96156398      -2.37931775      -3.25444582
H       -1.52884751      -0.34816227       1.87658524        0      -0.26226898       0.41326842       0.10360525      -1.35008331      -0.62494671       0.01539463
H        0.39224230       1.83155929      -1.30974052        0       0.46383007      -0.01797223       0.34241453      -1.22090926       3.11169173      -0.55217911
H        1.00393429       0.92590125      -2.85376662        0      -0.13421167      -0.51441574       0.65287573       0.77366382       0.54874496      -0.32013102
H       -0.63757671       0.79484006      -2.49058610        0      -0.41172429       0.25217282       0.20240866       1.88556460       0.86584598       1.64340900
12
Properties=species:S:1:pos:R:3:molID:I:1:momenta:R:3:forces:R:3 Nmols=1 Comp=DMC(1) energy=-586.7220291551159 free_energy=-586.7220291551159 stress="0.0 0.0 0.0 0.0 0.0 0.0 0.0 0.0 0.0" pbc="F F F"
C        0.05116651      -0.21671701      -0.07786676        0       1.27566799      -0.58329035       0.43716452      -2.39933715      -1.33217510      -0.14443316
O       -0.87283972      -0.91864631      -0.42315743        0       1.38034941      -0.78325014       1.35731165      -2.99141358      -1.58378424      -1.81515686
O        0.39918823      -0.10063531       1.20954948        0      -0.65183888       2.11612539      -0.56655398       4.64214391       2.87562674       2.07077223
O        0.80394763       0.51495883      -0.81884031        0       2.12777411       1.09746337      -2.17748623       2.10867937       5.50489840      -5.41740785
C       -0.51893810      -0.50926947       2.19617577        0      -0.37383796      -1.01046807       0.78393608      -6.43964253      -5.69936050       0.09082387
C        0.15221211       1.26401132      -2.08653910        0      -2.45077145      -0.62278461       1.42454952       4.21529921      -2.36347205       4.41799137
H       -0.09163988      -1.28663180       1.62235927        0      -0.69318566      -0.24201024      -0.37707126      -0.10816003       0.89824451       2.61409748
H       -0.57857394      -0.59984976       3.27609463        0      -0.03637410      -0.31308498      -0.46409318       1.32586043       1.19112589      -0.78357983