12
Properties=species:S:1:pos:R:3:molID:I:1:momenta:R:3:forces:R:3:charge:R:1 Nmols=1 Comp=DMC(1) energy=-589.6902849308998 free_energy=-589.6902849308998 dipole="0.04765691014859025 0.06870959653949979 0.21172223016946298" pbc="F F F"
C       -0.06354920       0.02615914       0.03273994        0       0.66236642      -1.38910455      -0.42994894      -1.10480465      -1.74935772      -2.56668991       0.47127016
O       -1.09745824      -0.56171083      -0.33384407        0       0.44713887       0.37203410      -0.37960493       1.82966510       1.39045630       2.85528675      -0.46883014
O        0.59339279       0.04178514       1.16893291        0       0.34457415       0.33445564      -0.11972078      -0.82852780       0.42618089       0.49198597      -0.23200909
O        0.70731479       0.58054012      -0.92796504        0      -0.95340215      -0.04045544      -0.04691798      -0.37199226      -0.70811741      -0.28837154      -0.25090475
C       -0.18480919      -0.38314587       2.27627182        0       0.06932281       0.10162985       0.30036168      -0.57910020       1.05533883       1.25905931       0.02408755
C        0.11790480       0.31317315      -2.18905210        0      -0.54101606       0.82435563      -0.23442364      -1.94280044       1.45788527      -1.67289732       0.03147711
H        0.50081283      -0.52887988       3.16355896        0      -0.21841557      -0.05035679       0.23096698      -0.82243213      -0.17215393      -1.20744938       0.08322969
H       -0.99130619       0.37122315       2.57026887        0      -0.01404207       0.18795372       0.35724041       1.19574539      -0.26180058      -0.29331200       0.05368733
H       -0.79898220      -1.19689691       1.93909299        0      -0.23992070       0.02491228       0.12217425       0.14298628      -1.04896365       0.29163103       0.08471066
H        0.82173383       0.39293513      -3.04121518        0       0.22505672      -0.13433370       0.22511529      -0.07668032      -0.15544425       0.93178879       0.06977969
H       -0.51975018      -0.63449883      -2.23208618        0       0.00997581       0.04100907      -0.06168993       1.35192819       0.97979173       0.12089941       0.08751433
H       -0.68493521       1.15580308      -2.35394812        0       0.20836176      -0.27209983       0.03644760       1.20601285      -1.21381549       0.07806889       0.04598747
12
Properties=species:S:1:pos:R:3:molID:I:1:momenta:R:3:forces:R:3:charge:R:1 Nmols=1 Comp=DMC(1) energy=-589.7296543342242 free_energy=-589.7296543342242 dipole="0.056257652012528636 -0.03488527478842517 0.006217312102690759" pbc="F F F"
C       -0.01870042      -0.08637724      -0.05276372        0       1.58004689      -0.88792801      -0.67576740       1.23530659       1.66519037       2.85989821       0.49278511
O       -1.07432901      -0.52993223      -0.28659653        0      -0.59919901      -0.11337271       1.59787788      -2.59890940      -1.94883258       0.65673917      -0.43980709
O        0.58525223       0.06586689       1.17385083        0      -0.86540217       0.21476594      -0.07033221      -1.05066745      -0.79485915       0.01607648      -0.29885781
O        0.67327154       0.54509276      -0.93345366        0       0.07928596      -1.09932080      -0.52059701       1.08341484       0.73897671      -1.48944573      -0.25113919
C       -0.22746862      -0.33156762       2.31717749        0      -0.58243093       0.24703075       0.69456598       1.96099496      -0.86149698       0.61855709       0.02701630
C        0.08368055       0.36254741      -2.22732187        0       0.08555363       0.58581553      -0.25931140       1.22409309      -0.62103512      -0.98101510       0.02276180
H        0.44839730      -0.79997378       3.13478393        0       0.22955701      -0.16562218      -0.20123560      -0.45420713       1.24732524      -1.17390085       0.06112541
H       -0.73675426       0.55215539       2.70177179        0       0.09188356       0.55369703      -0.13450334      -0.16626939      -0.40055398      -0.09846147       0.07483199
H       -0.81429702      -1.20332889       2.06826030        0      -0.10469482       0.17441262       0.01850514      -0.83914080       0.30467202      -0.41646938       0.07543973
H        1.00472210       0.34396368      -2.88779912        0      -0.03042251       0.30690591      -0.02668388      -1.23301944       0.47718899       0.22497846       0.07429078
H       -0.29791789      -0.71617739      -2.20887876        0       0.07533429       0.10114274      -0.15313758      -0.19065560       1.63926899      -0.54128017       0.08222978
H       -0.66947309       1.19039616      -2.47361707        0       0.04048809       0.08247317      -0.26938059       1.02905973      -1.44584450       0.32432329       0.07932319
12
Properties=species:S:1:pos:R:3:molID:I:1:momenta:R:3:forces:R:3:charge:R:1 Nmols=1 Comp=DMC(1) energy=-589.7648225100594 free_energy=-589.7648225100594 dipole="0.15669070888433625 0.01810137772046218 0.10332490963091226" pbc="F F F"
C        0.01616415      -0.13956068      -0.02539007        0      -1.03657125      -0.10102353       0.68743081      -2.51841907       1.45757400      -0.35733583       0.47744095
O       -1.11203918      -0.56475264      -0.20952550        0      -0.14917273      -0.57165732       0.87030873       1.21311768      -0.44204661       0.01802877      -0.46705648
O        0.52449552       0.06627268       1.16781403        0      -0.53695123      -0.16325628      -0.17416525       0.76311284       0.09404743      -0.10242019      -0.27907526
O        0.69679300       0.52071984      -0.98546887        0       0.58359785       0.12619353      -0.72474894       0.50608846      -1.09029085       0.84950611      -0.25618310
C       -0.24868981      -0.29406716       2.35969526        0      -0.31165101       0.08434988      -0.49902076       2.15742562      -1.81388327      -2.00082579       0.00504822
C        0.16499649       0.38494242      -2.27076201        0       2.08526054       0.17768775      -1.18726623      -1.51849721       0.51105687      -1.34746764       0.03838557
H        0.65905729      -0.70404860       2.92405509        0       0.04476063       0.00302300       0.19323746      -2.04599924       0.04286296       0.03252066       0.09584993
H       -0.60257038       0.61762129       2.70568688        0      -0.11021425      -0.12642900       0.52513334      -0.69173694       1.38633286       1.06526895       0.09033995
H       -1.07756770      -0.93407451       1.95906567        0      -0.19631069       0.41691089       0.15022523       0.78277360       0.07485893       0.98325176       0.10017709
H        0.98343024       0.63966293      -2.99256893        0      -0.06257309       0.09454763       0.02780702      -0.72680409      -0.64119595       0.59651752       0.07289415
H       -0.37719221      -0.62173739      -2.43173920        0      -0.03200524      -0.07031279      -0.13644261       1.17365103       1.32676143       0.14254310       0.06920481
H       -0.65609783       1.17847724      -2.40795120        0      -0.27816953       0.12996624       0.26750120       0.90528733      -0.90607780       0.12041258       0.05297417
12
Properties=species:S:1:pos:R:3:molID:I:1:momenta:R:3:forces:R:3:charge:R:1 Nmols=1 Comp=DMC(1) energy=-589.721717057686 free_energy=-589.721717057686 dipole="0.03840129256640633 0.08182834245727208 0.0942058964583118" pbc="F F F"
C       -0.09630003      -0.06617908      -0.00196811        0      -0.38019248       2.22530973      -0.35131560       1.05070280       0.34560745      -1.23944098       0.48313836
O       -1.14090305      -0.60992476      -0.18200698        0      -1.28285245      -0.92209226       0.37779513      -0.23489887       0.11302890      -0.64694372      -0.43078921
O        0.49917102       0.06889102       1.15663938        0      -0.31066886       0.02575538       0.47867859       0.26577661       0.12525305       1.78802076      -0.23532534
O        0.75035194       0.48726869      -0.96906679        0       0.82210079      -1.32023112       0.81126712      -1.30538969      -1.26393848       0.16783548      -0.30867038
C       -0.24047603      -0.26642432       2.35076797        0      -0.26580367       0.49844261       0.28902872      -0.92479083      -4.26178296      -0.70713149       0.02630676
C        0.25551134       0.41553893      -2.36244433        0       1.41287425       0.32607825      -0.84551606       1.18761121      -1.59841798       1.12768409       0.02267421
H        0.26709245      -0.93237569       3.12845471        0      -0.23679264      -0.52466991       0.13390459       0.35953980       0.62753709      -1.53633543       0.06497131
H       -0.53438085       0.53388017       2.91625099        0       0.03054432       0.03479245      -0.24257670      -0.76192575       2.38938165       0.68905559       0.08006865
H       -1.19319245      -0.94064984       2.08532842        0       0.06607879      -0.17862848      -0.05966821       1.67504755       1.53918088       0.12754790       0.06683829
H        1.12646845       0.69285042      -3.01040122        0       0.07240662      -0.08855212      -0.03121577      -0.88193757      -0.18553130       0.67885830       0.08119367
H       -0.09137995      -0.66665743      -2.60092561        0       0.31847328      -0.38233999      -0.31352432       0.39988845       1.80715397       0.39825721       0.06754517
H       -0.52322727       1.13524621      -2.32725095        0      -0.24616793       0.30613546      -0.24685749      -0.82962372       0.36252773      -0.84740769       0.08204851
12
Properties=species:S:1:pos:R:3:molID:I:1:momenta:R:3:forces:R:3:charge:R:1 Nmols=1 Comp=DMC(1) energy=-589.436545102142 free_energy=-589.436545102142 dipole="0.06550964818062881 0.25579527426877435 -0.1700119723842961" pbc="F F F"
C       -0.14777506       0.05523239      -0.03192621        0      -0.84925024       0.36718888      -0.16149621      -0.15980398      -3.72955129       1.13747003       0.46669540
O       -1.16894324      -0.63323421      -0.15445233        0       0.56060852       0.81589017       0.96590241       1.71384705       2.51290121      -0.45903279      -0.44848299
O        0.49101306       0.08956665       1.20247650        0      -0.31225849       0.93821351       0.61889223      -0.83084401       0.72514885      -1.59494527      -0.30555654
O        0.74824842       0.40079431      -0.95292719        0      -1.11910503      -0.99462146      -0.84434108      -1.52119017       0.89593890      -1.28463221      -0.24151343
C       -0.29207774      -0.31015061       2.37136419        0      -0.59369768      -0.53376730      -0.48992684      -0.04378184      -0.88834542      -3.17144671       0.00372923
C        0.35602007       0.42994058      -2.38310555        0       1.54270210      -0.05495664      -0.02386521       3.57968502      -1.47141083       0.37292439       0.02135552
H        0.46431404      -0.92915902       2.83410358        0       0.59575837      -0.02942594       0.00552529      -0.67945066       0.02996500       0.86755601       0.09975200
H       -0.60319953       0.62502392       2.72032689        0       0.03069313      -0.48613425      -0.05786337      -0.23018531       0.96822792       1.61225115       0.08245835
H       -1.21679296      -0.81409545       1.93675182        0      -0.50792502       0.00016201      -0.14618432       1.10775989      -0.03247011       0.84923165       0.08713328
H        1.28710706       0.79347885      -2.94702718        0       0.34016640       0.30846708       0.25620695      -1.00585823      -0.37876070       1.03827748       0.07739367
H        0.17150197      -0.57588590      -2.76080934        0       0.25734313      -0.17987211       0.16060150       0.05008222      -0.33298164       0.38176964       0.07510541
H       -0.42938087       0.99133575      -2.72617127        0       0.05496481      -0.15114395      -0.28345136      -1.98025997       1.70133811       0.25057664       0.08193011
12
Properties=species:S:1:pos:R:3:molID:I:1:momenta:R:3:forces:R:3:charge:R:1 Nmols=1 Comp=DMC(1) energy=-589.6255253506416 free_energy=-589.6255253506416 dipole="0.18200406749939235 0.09559159513182212 -0.11407375177986047" pbc="F F F"
C       -0.11590933      -0.04835463      -0.00925339        0       1.38055478      -1.72537233       0.66197546       1.26372299       0.66789999       0.02538284       0.49872726
O       -1.14799594      -0.58466818      -0.07629203        0      -0.78148565       0.16133737       0.76104528      -3.29461652      -1.62001517      -1.37221510      -0.44912904
O        0.44419630       0.16789489       1.17880538        0      -1.00028201       1.79972570      -0.96646371       0.67775160       0.29370169       0.39851382      -0.26617013
O        0.64057702       0.40280933      -0.98621561        0      -1.98402459       0.89141198       0.12722959       1.74432534       0.92907396       0.74658044      -0.29839538
C       -0.28946535      -0.34777339       2.28049874        0       0.76416369       0.62432593      -0.64361725      -1.00403097       2.67869117       0.69076136       0.02503819
C        0.47336937       0.40652816      -2.42599040        0       0.89974225      -0.04138141      -0.26268079       0.84026689      -0.85739862       1.81192624       0.02256697
H        0.32976059      -0.82448196       2.93075708        0      -0.16682932      -0.24838755       0.21645513       2.19680087      -2.19256853       1.15628042       0.07460796
H       -0.58601388       0.47165847       3.00006488        0       0.11931077      -0.55058469       0.04713497      -0.26620309       0.14778422      -1.18116912       0.05067848
H       -1.16629515      -0.90904590       2.05494886        0      -0.04035131      -0.58199651       0.08658211      -0.40359550      -0.37563753      -0.58255905       0.08462963
H        1.35539905       1.02299952      -2.72613578        0       0.30190563       0.17557368      -0.09787597      -0.68441136      -0.85127989      -0.17468029       0.09160901
H        0.49538464      -0.68360984      -2.66923325        0       0.34148795      -0.14756264      -0.31045986      -0.13226680       1.09760291      -0.66784237       0.08248572
H       -0.42880650       0.94137356      -2.57682851        0       0.16580780      -0.35708953       0.38067503      -0.93774345       0.08214579      -0.85097920       0.08335135
12
Properties=species:S:1:pos:R:3:molID:I:1:momenta:R:3:forces:R:3:charge:R:1 Nmols=1 Comp=DMC(1) energy=-589.600604079176 free_energy=-589.600604079176 dipole="0.29829748665067574 -0.09304398579228375 -0.1528127718414143" pbc="F F F"
C       -0.10292691      -0.16757869      -0.01037479        0      -0.98506768      -0.72832765      -0.83447308      -0.83429098       2.56896956      -0.12546543       0.48937979
O       -1.21672719      -0.57813118      -0.05681335        0      -1.25237292      -0.04456591      -0.32662962      -0.72598449      -1.57075384      -1.07224608      -0.44313215
O        0.44363245       0.22352365       1.14905694        0      -0.07282891      -0.19616540       0.44772412       0.18505255      -1.23063301       0.80849598      -0.27659383
O        0.57149915       0.46050813      -0.95757588        0       0.22384455       1.10012072       0.54030925       2.07214927      -0.43240429      -0.73970111      -0.26451627
C       -0.24298724      -0.38093953       2.28123578        0       0.22195975      -0.83918166       1.27645663       0.15024472       2.63033215       0.02395765       0.01426623
C        0.56707566       0.41157038      -2.39344073        0       0.38275267       0.50331550       1.09998255      -1.06436279       0.07397961      -0.65522272       0.03424344
H        0.44285743      -0.95002740       2.82926569        0       0.36345993       0.23984134      -0.52187574       1.18256587      -0.57140978       0.89617080       0.07279158
H       -0.66691726       0.46459897       2.90145217        0       0.03197002      -0.00576059      -0.25214776       0.38665749      -0.93673225      -0.59874080       0.07046513
H       -0.99409948      -1.01758949       1.91395370        0       0.00574177      -0.01645651      -0.66991026      -1.19497221      -0.59804942      -0.30959187       0.09224553
H        1.31731230       1.13933553      -2.74551959        0       0.13145476       0.41187818      -0.02062267      -0.35985282      -0.04521086       0.52512945       0.08130512
H        0.81293863      -0.51758808      -2.98366351        0       0.39984663      -0.13826393      -0.18740005      -0.30833740       0.27446484       1.39775711       0.06139552
H       -0.44973528       0.73910674      -2.70234943        0       0.54923940      -0.28643407      -0.55141337       0.51113079      -0.16255271      -0.15054297       0.06814991
12
Properties=species:S:1:pos:R:3:molID:I:1:momenta:R:3:forces:R:3:charge:R:1 Nmols=1 Comp=DMC(1) energy=-589.3751045680026 free_energy=-589.3751045680026 dipole="0.26093031532200717 0.010579918897694841 -0.05933130448937077" pbc="F F F"
C       -0.18036914      -0.09782324      -0.03336548        0      -1.14733296       1.60793217       0.09897291      -1.20116985       0.57533663      -0.04753267       0.46772361
O       -1.28354928      -0.63020276      -0.14833495        0      -0.35591081      -1.03239818      -2.04300412       2.86280359       1.01452201      -0.22422911      -0.43793923
O        0.43055926       0.19443998       1.15233448        0      -0.49504254      -0.25129184      -0.25979835      -0.93059839      -0.63905381      -0.02302662      -0.27540226
O        0.63192748       0.49855873      -0.95485820        0       0.89411531       0.24110468      -0.27857904      -1.68465765      -0.60826177       2.49485151      -0.27843424
C       -0.19387474      -0.41063063       2.33261798        0       1.07332336      -0.43998070       0.33387253       0.73293486       4.59306860      -0.07275719       0.00887067
C        0.59386759       0.43945135      -2.36262889        0       0.06345399      -0.03086405       0.17429095      -0.31126535       1.44485729       0.68670954       0.02052802
H        0.56919195      -0.85702038       2.84758823        0      -0.62942270       0.33117361       0.16385194       1.65635768      -1.17456041       1.31292866       0.08685211
H       -0.72886847       0.35552110       2.98703881        0       0.14141488      -0.19474209       0.24490253       0.91380055      -0.42850221      -0.83082557       0.06281589
H       -0.90701286      -0.98880877       1.96366448        0       0.02420386      -0.23346217       0.60758627      -3.03737080      -3.03726356      -1.23566633       0.09721284
H        1.17944291       1.38850479      -2.45327060        0      -0.06494531       0.34593011       0.18711437      -0.32226952      -0.94167182      -1.32832430       0.09978727
H        1.09227738      -0.47253234      -2.50686443        0       0.54022040      -0.11139791       0.44972745       0.95685568      -0.99681489      -1.39160045       0.08151001
H       -0.38416937       0.44202745      -2.88474808        0      -0.04407747      -0.23200362       0.32106256       0.36457921       0.19834394       0.65947251       0.06647531
12
Properties=species:S:1:pos:R:3:molID:I:1:momenta:R:3:forces:R:3:charge:R:1 Nmols=1 Comp=DMC(1) energy=-589.4184295407764 free_energy=-589.4184295407764 dipole="0.2508137589625698 0.03895597980227614 -0.021033740875648944" pbc="F F F"
C       -0.25016890       0.00257517      -0.02692838        0      -0.33569745       0.46595465       0.30057650       1.00164893      -0.88728534      -0.27951405       0.48770384
O       -1.22607810      -0.64239257      -0.25588694        0       1.23864150       0.58923257      -0.96734355      -0.30923736       0.22615764      -0.01508420      -0.43249834
O        0.34571020       0.19895519       1.16307099        0      -1.62964287       0.41699220      -0.22368692       0.05650246      -0.32605801       0.33077715      -0.26110616
O        0.62573657       0.51120637      -0.89724463        0      -0.65158997       0.53064520       1.04418027       0.71702504       0.95444130      -0.06854081      -0.25574420
C       -0.15716803      -0.44603682       2.32453484        0       0.57838653      -1.22367384       0.57292719       2.87069365       2.74820623       3.26230951       0.03611991
C        0.63080307       0.41528253      -2.30533510        0       0.66197146      -1.41684674       0.77785138      -2.47495739       0.56722990      -0.87442801       0.03205060
H        0.67989908      -0.97367136       3.03463943        0      -0.12905501       0.25548171      -0.78395080      -1.08183395       1.34482080      -1.98392106       0.05043707
H       -0.54931185       0.41143696       3.00613599        0       0.04344414       0.32345414      -0.04655462       0.15810466      -1.49594718      -1.00670341       0.06052245
H       -0.80013217      -1.20137065       2.14958777        0       0.53758338       0.22807985      -0.05222042      -2.46973762      -1.96199910      -0.84413268       0.08391635
H        0.99960967       1.29751327      -2.87204967        0      -0.35373187       0.03218910      -0.43547314      -0.96078692       0.45012317       1.08313595       0.06929528
H        1.32001732      -0.25148122      -2.67352999        0      -0.13132139       0.36031740      -0.31994340       1.80616670      -2.38765288      -0.06169340       0.06957245
H       -0.36109810       0.03862855      -2.70412110        0       0.17101155      -0.56182623       0.13363750       0.68641179       0.76796346       0.45779502       0.05973073
12
Properties=species:S:1:pos:R:3:molID:I:1:momenta:R:3:forces:R:3:charge:R:1 Nmols=1 Comp=DMC(1) energy=-589.2770959684041 free_energy=-589.2770959684041 dipole="0.28218840444892274 0.0022323818566932574 0.12321902246058834" pbc="F F F"
C       -0.22226036       0.01076693      -0.00961526        0       0.98655368      -0.62702064      -0.32454177      -2.03244049      -1.83863483      -2.29953226       0.48428530
O       -1.19959833      -0.67205343      -0.30320586        0      -0.30003839      -1.42067529      -0.66461828       1.70833661       1.21699549       0.58588350      -0.47790524
O        0.29230230       0.24516011       1.13276675        0      -0.15179201       1.01554621      -0.47267539       0.33085285       1.13556362       2.17876477      -0.24229335
O        0.61619114       0.60622606      -0.85347028        0      -0.14108577       2.18228624       0.33946637       0.49071341       0.15597277      -0.82352433      -0.26871502
C       -0.10841568      -0.43441877       2.30653011        0       0.78946285      -0.67393374      -1.73026175       1.85965244      -1.75958696      -0.22762351       0.02855941
C        0.60162892       0.30937312      -2.23782889        0      -0.61754657      -1.76562226       0.77388183      -0.91340870      -0.71496463      -0.35898312       0.02529719
H        1.06436937      -0.98807835       2.50131341        0       0.01653901       0.18099079       0.07552618      -3.43000659       1.39552080       0.73937506       0.07253397
H       -0.61737213       0.26462810       3.03482718        0      -0.21587424      -0.14911419       0.44053196       1.21311551      -0.87702516      -0.53983768       0.08651619
H       -0.82056144      -1.23807274       1.99911713        0       0.38293094       0.70813476       0.22468066       0.43386157       0.39931178       0.44885762       0.07794817
H        0.33098113       1.24157563      -2.75390392        0      -0.69934630       0.21850353       0.18487039       0.81862279      -0.35379585      -0.17398765       0.07664820
H        1.48586262      -0.29031737      -2.54289425        0      -0.16221918       0.59575154       0.73568359       0.04450960       1.20646575       0.20226020       0.07107923
H       -0.19424858      -0.40255634      -2.47511426        0       0.11241597      -0.26484694       0.41745620      -0.52380898       0.03417722       0.26834739       0.06604595
12
Properties=species:S:1:pos:R:3:molID:I:1:momenta:R:3:forces:R:3:charge:R:1 Nmols=1 Comp=DMC(1) energy=-588.7460877937319 free_energy=-588.7460877937319 dipole="0.17234427025776342 -0.12244149546501848 -0.07456800130042882" pbc="F F F"
C       -0.21817584      -0.05924118      -0.06771893        0      -0.18608870       0.37847470      -0.62554443       2.78389889       3.78867029       2.06126136       0.48175392
O       -1.13661532      -0.74252424      -0.31638103        0       1.59038331      -0.84795324       0.29510898      -0.32857568      -0.82064651      -0.07874980      -0.37590518
O        0.28574729       0.37110127       1.16527579        0      -0.17919262       1.67095758       0.42526728      -0.58225295      -1.89519954      -0.48196360      -0.25951451
O        0.58530815       0.71624776      -0.85072678        0      -1.21338489       1.31089669      -0.03330738      -2.11155804      -1.77609843      -0.50571854      -0.26894591
C       -0.00185941      -0.46356160       2.22420558        0       0.73943792      -1.62553871      -0.35736925      -1.97239500      -2.93902108       3.02787316       0.05102368
C        0.48451637       0.22567275      -2.18627903        0      -0.43411572      -0.72923148       1.05764985       2.44255321       1.18789845      -0.38401918       0.01277104
H        0.87277025      -1.06307214       2.90751636        0       0.12336387      -0.45804963       0.10560671      -1.48733431       1.09355981      -2.82435496       0.03766126
H       -0.42636953       0.07129568       3.08114728        0      -0.07797187       0.26713805       0.11513880      -0.20177616       0.66595743      -0.35320650       0.05344299
H       -0.97693824      -1.24140872       1.94459606        0       0.30503166       0.19644167      -0.03694797       2.84950612       1.57650741       0.46599279       0.03768053
H        0.06437440       0.96674364      -2.85231904        0      -0.37427846      -0.28581034      -0.62175458      -0.10107870       0.43773006      -0.10404344       0.06736166
H        1.61968420       0.16483683      -2.38994458        0      -0.64583318       0.34060935      -0.43883181      -1.78857027      -0.75458060      -0.56651101       0.07840857
H       -0.17152136      -0.63030963      -2.20986632        0       0.35264867      -0.21793465       0.11498381       0.49758288      -0.56477729      -0.25656027       0.08426195
12
Properties=species:S:1:pos:R:3:molID:I:1:momenta:R:3:forces:R:3:charge:R:1 Nmols=1 Comp=DMC(1) energy=-588.8994625185418 free_energy=-588.8994625185418 dipole="0.29900466624625716 -0.036684262081402366 -0.06706914130453634" pbc="F F F"
C       -0.17507260       0.08298176      -0.04888894        0       0.30385582       1.33026942       1.35698794      -2.56837732      -3.07992904       1.95699882       0.47702337
O       -1.04588632      -0.78767365      -0.27437061        0       1.95837721      -0.23822662       1.37195119       2.53905690       2.42100982       0.67599340      -0.47478316
O        0.27479914       0.40688709       1.19146165        0       0.07233445      -0.44037507       0.26501647      -0.28543805      -1.22070911      -0.46574339      -0.30736334
O        0.48768419       0.76508197      -0.90081680        0      -1.82084254       1.32380842      -1.68753422       1.38172840       0.91019960      -1.72962127      -0.20466358
C        0.01257651      -0.56753543       2.27681436        0      -0.29578104      -0.62240684      -0.34388742      -0.34544177      -2.19303332      -4.07243336       0.00685158
C        0.45341594       0.19957104      -2.18022115        0      -0.31484265      -0.94273806      -1.65231104       1.76301328      -1.76622796      -2.37948773       0.03201123
H        0.95615854      -1.29982389       2.29713364        0       0.58108082      -0.34169282      -0.47763968      -1.79105514       1.94607342       0.77630712       0.07414869
H       -0.32811082       0.17846637       2.93677919        0       0.06845919       0.13902969       0.21535012       0.03187181      -0.50603284       1.82551097       0.11765977
H       -0.86621366      -1.29805676       1.79818024        0      -0.16665311      -0.03980718      -0.01563480       1.67734165       1.74317010       1.47698453       0.07828617
H       -0.31587080       0.55955967      -2.79902035        0      -0.56137096      -0.29336115       0.67210077      -1.17945177       1.02402070      -0.57004110       0.07206158
H        1.40653180       0.19673661      -2.90419783        0      -0.16133869      -0.05063473       0.10951935      -1.25020162       0.72780859       2.22125799       0.06072666
H        0.23738148      -0.87682274      -2.11288314        0       0.33672150       0.17613494       0.18608132       0.02695362      -0.00634996       0.28427401       0.06804104
12
Properties=species:S:1:pos:R:3:molID:I:1:momenta:R:3:forces:R:3:charge:R:1 Nmols=1 Comp=DMC(1) energy=-589.0528928958614 free_energy=-589.0528928958614 dipole="0.1250539591957369 -0.13349282433311055 0.0940800527655317" pbc="F F F"
C       -0.22545985       0.13139474       0.03916042        0      -0.32897021       0.25182224       0.10702077       3.88331444       2.74866657      -1.51095248       0.49238849
O       -0.88523986      -0.78208988      -0.18052286        0       1.89609070      -0.65094697       1.30979331      -3.58775371      -3.66182024      -1.58169073      -0.41592474
O        0.25923170       0.38705161       1.21402936        0      -0.24731100       0.86266692       0.70269452       0.64257561       2.62351227       0.73596521      -0.23000973