12
Properties=species:S:1:pos:R:3:molID:I:1:momenta:R:3:force_mace:R:3:forces_xtb:R:3 Nmols=1 Comp=DMC(1) energy_mace=-588.7412983168307 energy_xtb=-589.6902849308998 pbc="F F F"
C       -0.06354920       0.02615914       0.03273994        0       0.17844136      -0.34376020       1.07719402      -1.02784938      -1.60963108      -2.48845113      -1.10480465      -1.74935772      -2.56668991
O       -1.09745824      -0.56171083      -0.33384407        0      -0.37132631       0.01130763       0.61994678       1.38533205       1.29981644       3.33386452       1.82966510       1.39045630       2.85528675
O        0.59339279       0.04178514       1.16893291        0      -0.06068457      -0.59711980      -0.95669715      -0.79106757       0.22544423       0.68442196      -0.82852780       0.42618089       0.49198597
O        0.70731479       0.58054012      -0.92796504        0      -0.60590825       0.76431855      -0.46687405      -0.57838070      -0.51831182      -0.49349723      -0.37199226      -0.70811741      -0.28837154
C       -0.18480919      -0.38314587       2.27627182        0      -0.04014364      -0.06563936      -0.56096274      -0.63836505       1.24462412       1.46174181      -0.57910020       1.05533883       1.25905931
C        0.11790480       0.31317315      -2.18905210        0       0.29358387      -0.58416592       0.23783068      -2.06176179       1.47870651      -1.97097013      -1.94280044       1.45788527      -1.67289732
H        0.50081283      -0.52887988       3.16355896        0       0.01339961       0.14254610       0.22731550      -0.83686539      -0.03510090      -1.39393574      -0.82243213      -0.17215393      -1.20744938
H       -0.99130619       0.37122315       2.57026887        0      -0.01864405       0.28794111      -0.37432648       1.38614267      -0.34285218      -0.31991020       1.19574539      -0.26180058      -0.29331200
H       -0.79898220      -1.19689691       1.93909299        0       0.07867573      -0.13808167       0.14732151       0.08007983      -1.26805404       0.52246493       0.14298628      -1.04896365       0.29163103
H        0.82173383       0.39293513      -3.04121518        0       0.06493475       0.18520010      -0.03584277      -0.20142195      -0.24058748       1.10094083      -0.07668032      -0.15544425       0.93178879
H       -0.51975018      -0.63449883      -2.23208618        0       0.25642326       0.05312722       0.01555753       1.74678524       1.15276149      -0.71380321       1.35192819       0.97979173       0.12089941
H       -0.68493521       1.15580308      -2.35394812        0       0.21124824       0.28432625       0.06953715       1.53737205      -1.38681531       0.27713359       1.20601285      -1.21381549       0.07806889
12
Properties=species:S:1:pos:R:3:molID:I:1:momenta:R:3:force_mace:R:3:forces_xtb:R:3 Nmols=1 Comp=DMC(1) energy_mace=-589.2157004414421 energy_xtb=-589.8629518237734 pbc="F F F"
C       -0.06664697      -0.03310952      -0.00210216        0       0.31874564      -0.74623620      -1.20310847       2.53814533       1.30696175      -0.13549462       2.29703908       1.21831967      -0.22882985
O       -1.09441999      -0.53872794      -0.20741324        0      -0.66788805      -0.29951173       2.75195041      -3.44638921      -1.63684347      -0.31836763      -2.93281263      -1.46238220      -0.31370353
O        0.58107946      -0.00554859       1.14088712        0      -0.77249749      -1.07353700       0.25896148       0.66203989      -0.38704345       0.44367853       0.79879075      -0.07445768       0.35670929
O        0.65113604       0.60358805      -0.94452920        0      -0.67466963       0.44086471       0.11294082       0.25818399      -0.41912703       0.48497348       0.60234730      -0.56732502       0.63443150
C       -0.22007614      -0.37797024       2.25779967        0      -0.23156907       0.19852440      -0.29384235       1.05231036       1.88010751       0.69397342       0.81465254       1.49444304       0.71712524
C        0.16285849       0.35836047      -2.22297717        0       0.93591802       1.12447042      -1.25769333      -0.02561481       0.66995787      -2.53554842      -0.02837881       0.62618486      -2.29083458
H        0.46720584      -0.43404273       3.12424763        0       0.43646689       0.10263016       0.06543246      -0.34462963       0.21135662      -0.37450995      -0.23824645       0.24920806      -0.38263048
H       -0.87114183       0.53336299       2.34827907        0      -0.09878783       0.15897711      -0.03375711      -0.20763567      -1.34705885       0.59283364      -0.24373136      -1.44858841       0.50497008
H       -0.62668367      -1.36593226       2.13889712        0       0.04172074       0.00694371      -0.00384906      -0.68121662      -0.21175972      -0.20591581      -0.79760705       0.00248685      -0.25100632
H        0.98917626       0.46679942      -2.96126738        0       0.42641250       0.15025221       0.00586345      -0.19851431       0.45255718       0.59862203      -0.08938347       0.46116977       0.60001885
H       -0.10610137      -0.72709293      -2.42396432        0       0.36291569       0.05352812      -0.08181186      -0.41168019       1.30821837       0.62419591      -0.68310789       1.41573548       0.68177065
H       -0.58005281       1.21948119      -2.44169927        0      -0.07676743      -0.11690590      -0.32108644       0.80500086      -1.82732680       0.13155940       0.50043800      -1.91479440      -0.02802085
12
Properties=species:S:1:pos:R:3:molID:I:1:momenta:R:3:force_mace:R:3:forces_xtb:R:3 Nmols=1 Comp=DMC(1) energy_mace=-588.9673986467079 energy_xtb=-589.622281392488 pbc="F F F"
C       -0.05233505      -0.08208007      -0.06852834        0      -0.67216072      -0.58024472      -0.24248506      -2.68670646      -0.66204188       2.54001422      -2.59908854      -0.66074397       2.34963548
O       -1.17172327      -0.57715123      -0.09220959        0      -0.95243206      -0.86926798       0.70242045       1.23110895       0.54050170      -1.71837083       1.37096695       0.66277496      -1.62317902
O        0.56900530      -0.09160026       1.12967736        0       0.04373331      -1.42167546      -0.54643230       1.11828658       0.57869792      -0.81645298       1.08909721       1.04282623      -0.71349013
O        0.62855593       0.61885957      -0.92513804        0      -0.16478442       0.56196207       0.04661010      -0.57321932      -0.18229001      -1.30026113      -0.50024436      -0.35347377      -0.96742500
C       -0.20418457      -0.33042854       2.24787293        0      -0.36179771       0.30645647      -0.02907871      -1.45157736       1.00983154       1.78577743      -1.15171372       0.56120646       1.61731629
C        0.28826500       0.47208946      -2.33200360        0       2.15356904       1.24173920      -0.84008178      -0.82064256      -0.93812968       0.79262211      -0.90227376      -0.72334822       0.59361630
H        0.47420695      -0.30440997       3.08624373        0       0.14915589       0.09456335       0.52211470       0.41998731      -0.35074821       0.16546454       0.34028898      -0.43042743       0.20260108
H       -1.00961882       0.39269524       2.54369479        0      -0.22340476      -0.02357923       0.17951932       0.88604130       0.32351454      -0.87284417       0.69093647       0.40450387      -0.94282321
H       -0.79583915      -1.21585659       2.19127286        0      -0.13270050       0.12665575       0.05185691       0.17788930      -1.34963136      -0.21601367       0.08903595      -1.23897800      -0.15345584
H        1.19687526       0.98661078      -2.70752911        0       0.08485188       0.68327743       0.17423735      -0.93657102      -0.73691673      -0.78926868      -0.92238936      -0.94387609      -0.77502779
H        0.00855079      -0.63424906      -2.48503677        0       0.20766972       0.06506312      -0.14174255       1.31676639       1.40996344      -0.18035664       1.36979131       1.28070615      -0.26625879
H       -0.70051858       0.91813702      -2.65237931        0      -0.13169967      -0.18495000       0.12306156       1.31863688       0.35724872       0.60968980       1.12559286       0.39882980       0.67849062
12
Properties=species:S:1:pos:R:3:molID:I:1:momenta:R:3:force_mace:R:3:forces_xtb:R:3 Nmols=1 Comp=DMC(1) energy_mace=-589.1499844466872 energy_xtb=-589.7028186892663 pbc="F F F"
C       -0.14847297      -0.11767540      -0.00789075        0      -0.68627003       0.22770103       1.12537367       1.88643886       1.28339721      -1.12564465       1.77592611       1.10426378      -1.08254083
O       -1.21866106      -0.60400195      -0.12719106        0      -0.96909422       0.21274134      -1.51835029      -0.78749199      -0.20069046      -0.88028204      -0.72432520      -0.09135536      -0.71174864
O        0.59259198      -0.16630914       1.09613469        0       0.34048346      -1.25421741      -0.44495895      -1.38414156       0.06885311       0.89858726      -1.05265512       0.44371193       0.71991589
O        0.57657329       0.65404131      -0.93015647        0      -1.23335484       0.31577984       0.29895992       0.02449492      -1.09368985       1.98568389       0.33372748      -1.18741468       1.93971218
C       -0.25056380      -0.32541979       2.30074447        0      -0.39987344      -0.50840144       0.11870335       1.43271373      -1.00430384      -1.41100843       1.09986830      -1.07055346      -1.24007301
C        0.44199605       0.55965812      -2.31734380        0       1.39407683       0.38749100       0.52966320      -0.61857279      -1.30328082      -1.28472812      -0.65012856      -0.70741361      -0.81929623
H        0.49024866      -0.34505900       3.07074967        0       0.46560970      -0.11950317       0.36081060       0.18812924       0.55019896       0.76432511       0.21169723       0.51249260       0.72225523
H       -0.97274162       0.48665373       2.32719513        0       0.03498386       0.22884780      -0.39651652       0.05661339      -0.24124479       0.19558103       0.01712052      -0.30737627       0.22252652
H       -0.66568816      -1.35213178       2.28625266        0       0.19952806      -0.02451568       0.12613150      -0.29800658       0.73243116      -0.17106647      -0.37587923       0.67724200      -0.16878078
H        1.07439642       1.30577135      -2.78942217        0       0.00051793       0.33092273      -0.20952602       0.01735879       0.39818002       0.38014637       0.01987986       0.50033491       0.36742611
H        0.91366384      -0.42271732      -2.76081433        0       0.79447834       0.44134174      -0.02994992      -1.64555526       1.71793690       1.29575606      -1.65773049       1.21596132       0.89409257
H       -0.64033715       0.85465693      -2.47306612        0       0.05891434      -0.23818777       0.03965947       1.12801925      -0.90778758      -0.64735000       1.00249909      -1.08989315      -0.84348902
12
Properties=species:S:1:pos:R:3:molID:I:1:momenta:R:3:force_mace:R:3:forces_xtb:R:3 Nmols=1 Comp=DMC(1) energy_mace=-589.2863113206091 energy_xtb=-589.7925722142056 pbc="F F F"
C       -0.16829849      -0.07707539      -0.01096229        0      -0.35230952       0.06519624      -0.97750473      -1.59796216      -2.09918239      -0.45606690      -1.77936360      -2.06077911      -0.48235482
O       -1.25851830      -0.60368878      -0.21058850        0       0.02302227      -0.01946616      -0.81315826       1.93478187       1.07694211       0.56389786       1.86537814       1.05120931       0.57538877
O        0.59075702      -0.24542263       1.10432796        0      -0.35338160      -1.05621972       0.45231288      -0.81233963       0.04736783      -0.27548840      -0.55258440       0.59194212      -0.34120500
O        0.48397870       0.67417170      -0.85506091        0      -1.42827215       0.79881515       1.88986328       0.79880016       0.84314606      -1.37527904       1.28480856       0.53245659      -0.97818592
C       -0.18591791      -0.33921623       2.29769739        0       0.78609384      -0.74043380      -0.93011928      -1.35749464      -0.29317535      -1.52793190      -1.26035179      -0.45903098      -1.29624814
C        0.53388320       0.59651375      -2.31367676        0       1.19821643       0.20778876       0.00436414       0.07356478      -2.12940061       0.33877088      -0.22157443      -1.67629373       0.52108891
H        0.42490987      -0.20955937       3.13242521        0       0.24074179       0.27710037       0.60071774       1.37790866      -0.14542620       1.24103269       1.29126393      -0.11500491       1.11795005
H       -0.85738419       0.52703083       2.27894275        0      -0.07778065       0.21439173       0.06085220      -0.47819537      -0.35583028       0.26932517      -0.45720172      -0.44409503       0.15547064
H       -0.71148170      -1.32825792       2.31997428        0      -0.14195825       0.43661306      -0.05939551       0.39583459       1.02325081       0.01697223       0.16368414       0.90663613       0.07019073
H        0.94303739       1.57211202      -2.56525453        0      -0.26118245       0.36195117       0.16567414      -0.33657663      -0.18740519      -0.27295018      -0.36764475      -0.15222771      -0.35570286
H        1.30084361      -0.22931357      -2.61460813        0       0.10557831       0.00475705       0.10026271      -1.55741328       1.59556990       0.68717766      -1.24576539       1.24364536       0.52613034
H       -0.48546151       0.32319781      -2.74524481        0       0.26123198      -0.55049384      -0.49386930       1.55909164       0.62414331       0.79053993       1.27935133       0.58154198       0.48747732
12
Properties=species:S:1:pos:R:3:molID:I:1:momenta:R:3:force_mace:R:3:forces_xtb:R:3 Nmols=1 Comp=DMC(1) energy_mace=-589.1684475996303 energy_xtb=-589.5731439831937 pbc="F F F"
C       -0.20344618      -0.11520203      -0.06418590        0       0.48691270      -0.13937961      -0.13412036       2.33806975       0.26843283       1.94073108       1.96004500       0.10176782       1.74771675
O       -1.25692466      -0.58297442      -0.24568510        0      -0.56139260      -0.00372205      -0.53782570      -2.25889511      -1.24427161      -0.45425085      -2.08120676      -1.13734974      -0.34114119
O        0.56868799      -0.30673338       1.08570765        0      -0.06198425      -0.81944178      -0.93885183      -0.14909268       0.00026595      -1.59669093      -0.14619084       0.63326972      -1.52156560
O        0.43552949       0.73626200      -0.80317650        0      -0.63733122       1.28420746      -0.50154842       0.87613779       0.91827860      -1.75337171       1.21135541       0.46389976      -1.29043353
C       -0.16143703      -0.35328576       2.26443306        0      -1.05744471      -0.57724011      -0.72586482      -0.60286393      -0.54020824       0.62901494      -0.48597684      -0.75828149       0.59205147
C        0.62317428       0.61002514      -2.22712404        0       1.23683410      -0.23717434       2.08001728      -0.19907729      -1.12814662      -0.40291137      -0.60121843      -0.70604352      -0.39334378
H        0.52132079      -0.28170112       3.11207607        0       0.64113532      -0.30451491       0.29090029       0.06850426      -0.39796550      -0.25602831      -0.02988101      -0.42478094      -0.20089185
H       -0.83686046       0.45967153       2.31375875        0      -0.04299936       0.27950274      -0.01064754      -0.67856355       1.52180245       0.18889364      -0.64284489       1.36885479       0.12166537
H       -0.83967625      -1.21011267       2.26616325        0       0.16934661       0.05917266       0.01824039       0.49749472      -0.60076921       0.27786021       0.39736411      -0.53224524       0.35556468
H        0.51067650       1.65344639      -2.58230944        0      -0.32912799       0.22732927      -0.03374716       1.01744016      -0.50260385       0.18040585       1.18462183      -0.54943455       0.01441009
H        1.58251789      -0.03290590      -2.36116191        0       0.45877521       0.48359077       0.22933934      -1.73816306       1.68849662       0.04658304      -1.34362436       1.61740989      -0.17155874
H       -0.21270857       0.11195180      -2.80727130        0      -0.30272381      -0.25233010       0.26410854       0.82900894       0.01668857       1.19976441       0.57755679      -0.07706652       1.08752632
12
Properties=species:S:1:pos:R:3:molID:I:1:momenta:R:3:force_mace:R:3:forces_xtb:R:3 Nmols=1 Comp=DMC(1) energy_mace=-588.6151856909227 energy_xtb=-588.8142252065705 pbc="F F F"
C       -0.16083076      -0.12063847      -0.03283189        0       0.10754719      -0.01182122       0.20027313      -3.46878272       0.17750654      -2.44330142      -3.79308943      -0.45794761      -2.54392507
O       -1.28700639      -0.58507858      -0.29853251        0       0.05667011       0.04448170      -0.89141121       2.86353830       0.98499039       0.62354208       3.10367837       1.10284447       0.60453795
O        0.53826202      -0.36522144       1.01903170        0      -1.16048872      -1.01895894      -0.76570003      -0.23289519      -0.24969357       1.61696637      -0.08005030       0.49721600       1.31479586
O        0.44226974       0.81378327      -0.82175714        0       0.86357087       1.15842742       1.21944331      -0.60126128       0.17682222       3.93239530       0.00480915       0.11459276       4.59663133
C       -0.23026205      -0.35406077       2.26560103        0      -0.54590171      -0.54087887      -0.36408659       1.43388304      -2.39994433      -1.82911256       0.94908718      -2.28221569      -1.55758708
C        0.66349505       0.59876094      -2.10604497        0       0.30484312       0.05660602       1.11669378       0.59149345      -0.41953128      -2.41033079       0.51638922      -0.07142840      -3.25294774
H        0.55569909      -0.60698537       2.88285377        0       0.27329488      -0.17266655       0.25132500       1.69086992       0.52048459       2.27136400       1.81637506       0.43490572       2.19094649
H       -0.66117970       0.59404629       2.38421167        0      -0.04504963       0.17226819       0.10367037      -0.91309976       0.89838417       0.34344978      -0.87880091       0.69017852       0.34223872
H       -0.77585154      -1.29835906       2.35808806        0      -0.04714067       0.37768255       0.00078187      -1.16046923       0.65043134      -0.48570868      -1.17314618       0.61931103      -0.53279764
H        0.57143504       1.53902118      -2.62065330        0      -0.13610345       0.11580115      -0.54380765      -1.09916178       0.47913527      -0.63085394      -1.80014027       0.69448120      -0.69983339
H        1.74550880       0.61360724      -2.30849005        0      -0.05673306       0.39934230      -0.09816142      -0.02846283      -1.24990355       0.06262341       0.35472044      -1.93571024       0.28574635
H       -0.01555883      -0.23408494      -2.40914920        0       0.38549109      -0.58028376      -0.22902055       0.92434808       0.43131822      -1.05103355       0.98016766       0.59377222      -0.74780578
12
Properties=species:S:1:pos:R:3:molID:I:1:momenta:R:3:force_mace:R:3:forces_xtb:R:3 Nmols=1 Comp=DMC(1) energy_mace=-588.8683592615082 energy_xtb=-589.1181748766688 pbc="F F F"
C       -0.21815355      -0.12841450      -0.07791210        0       0.07290353       1.22069254      -0.06109221       3.60712968       2.89213173       1.70653578       2.97662910       2.56876339       1.27007963
O       -1.24225709      -0.56242483      -0.37441934        0      -0.50287483      -0.15791724      -1.94970745      -3.55588729      -1.62815140      -1.57637376      -3.26160052      -1.49464870      -1.47011193
O        0.44950159      -0.43639561       1.04387054        0      -1.31058049      -0.91981999       1.09980553       1.07473485      -0.10090381      -0.61228384       1.35530953       0.72049018      -0.54673425
O        0.46821834       0.88666827      -0.71048020        0      -0.10603913       0.54223724       1.63428612      -0.72491672      -2.10648432      -1.99825761      -0.30441606      -2.45602899      -1.28478931
C       -0.18664259      -0.39791233       2.26546368        0      -0.17082820      -0.98321901      -0.01277216      -4.12624944       0.29519870      -0.95911465      -3.67906499      -0.13693666      -0.77390805
C        0.71765062       0.61688032      -2.14675406        0       1.47106098       0.42167193      -0.92365708       1.38404840       0.03582636       1.86527382       1.05237602       0.20320353       1.31582757
H        0.48709642      -0.46887131       3.01839735        0       0.04814459      -0.11282867       0.46990571       2.50295889      -1.08246743       2.12383168       2.08929593      -1.08430280       1.99278595
H       -0.72091072       0.50436407       2.51057933        0      -0.04415172       0.10106655      -0.08677278       0.04692184       1.46881224      -0.52045047       0.03554294       1.49424559      -0.54407905
H       -1.07448497      -1.05773164       2.29183643        0       0.43575883       0.28848300      -0.12523547       0.94697440      -0.75257165      -0.07759093       0.71171851      -0.85133129       0.19214764
H        0.12049015       1.30442375      -2.69967980        0      -0.58816104      -0.09862681      -0.00510371       0.03119321       0.91657975      -0.20789121       0.23452781       0.87384833      -0.46127264
H        1.81993574       0.63833627      -2.17162285        0       0.15620653       0.02471364       0.11220547      -0.37394942       0.90458300      -0.35104473      -0.33756158       0.96884800      -0.50031092
H        0.54315816      -0.34579811      -2.59878823        0       0.53856096      -0.32645320      -0.15186197      -0.81295840      -0.84255317       0.60736593      -0.87275671      -0.80615056       0.81036538
12
Properties=species:S:1:pos:R:3:molID:I:1:momenta:R:3:force_mace:R:3:forces_xtb:R:3 Nmols=1 Comp=DMC(1) energy_mace=-588.8332168141461 energy_xtb=-588.9503089804157 pbc="F F F"
C       -0.20371939      -0.06653816      -0.03863901        0      -0.74023962      -0.32840540      -0.18042282      -3.07190243      -2.98881897      -1.37629024      -3.92735996      -3.14736193      -1.69184859
O       -1.25166735      -0.58902801      -0.51208060        0       0.90994324       0.02783191      -1.98926391       2.89383902       1.38528535       2.01978518       3.09695112       1.37672962       2.00108397
O        0.42936932      -0.50496803       1.07539411        0       0.38744585      -0.94938970       0.19462481       0.40003381       0.08862989      -0.95187046       0.94448234       0.69384215      -0.78360039
O        0.42159823       0.85848532      -0.69054032        0      -0.54571347      -1.14106795      -0.82544084       1.71487172       0.92873267      -1.44433627       2.43436940       0.77522275      -0.99269354
C       -0.21280418      -0.38939430       2.33206003        0      -0.72736488       0.13535012       0.71321481      -2.93560873      -0.81593998      -3.36844293      -2.83561518      -1.01613896      -2.85053684
C        0.81102693       0.68081520      -2.15477748        0       0.99337070       0.95415125       1.32732047      -0.49849967       0.28048768       3.51055782      -0.66460074       0.33093635       3.09361990
H        0.37163221      -0.58563184       3.12109289        0      -0.08067857      -0.12381056       0.16990554       2.91888339      -0.62539640       2.64468922       2.81679015      -0.58844106       2.38495481
H       -0.52818616       0.62560916       2.33320770        0      -0.03061010       0.04464802       0.04346609      -1.04448447       0.85486817       0.76490950      -1.07380631       0.64674894       0.65778558
H       -0.97937939      -1.21207217       2.35103938        0       0.45200330       0.22146305       0.32974107       0.10082171       1.12899756       0.01422855      -0.20284846       1.12312362       0.08799118
H        0.10260209       1.27801073      -2.61054639        0      -0.19781086       0.27863827      -0.21767950      -1.40563246       0.81502702      -1.38739662      -1.52109165       0.84940039      -1.50277078
H        1.75977449       1.15759986      -2.26778469        0      -0.29469668       0.73907241      -0.10486758       0.62538814      -0.32410128       0.14457044       0.73519316      -0.23390245       0.15506909
H        0.71550514      -0.35621657      -2.33177456        0      -0.12564892       0.14151858       0.53940186       0.30228997      -0.72777172      -0.57040419       0.19753613      -0.81015943      -0.55905440
12
Properties=species:S:1:pos:R:3:molID:I:1:momenta:R:3:force_mace:R:3:forces_xtb:R:3 Nmols=1 Comp=DMC(1) energy_mace=-588.5264875995199 energy_xtb=-588.7157150771012 pbc="F F F"
C       -0.27124068      -0.12765620      -0.05670469        0       0.97939582      -0.71634206      -0.44806887       4.22969749       0.30902733       0.10783881       3.50648802       0.29936740      -0.31105912
O       -1.18011342      -0.62224860      -0.59168885        0      -0.80835767      -1.56029421      -1.33672625      -2.50290311      -1.49389562       0.25546920      -2.47153418      -1.68967205       0.17089737
O        0.45626874      -0.54391250       1.07583416        0      -0.12951383      -0.23628022       0.18104119      -3.01395771       1.38275148       0.10721766      -2.54823281       1.76029127      -0.10384717
O        0.41303594       0.83486781      -0.73754655        0       0.66287118       0.57304057       0.24357783       0.03235213       0.81107993       4.27231253       0.90907958       0.60865202       4.92295801
C       -0.23419918      -0.36306645       2.36034363        0      -0.39978542      -0.09719111       0.28962018      -3.89311881      -1.19613860      -3.10954708      -3.52815457      -1.09398813      -2.92844808
C        0.81469519       0.80156560      -2.02039930        0      -0.89505590       1.11173733       1.17187770      -1.32328908      -1.36033910      -1.47975302      -1.37876871      -0.90368235      -1.97564511
H        0.43276245      -0.58129750       3.06701114        0       0.27656205       0.07488114      -0.12583892       2.87508615      -0.99679465       2.45321792       2.67793323      -0.92232279       2.60095132
H       -0.66488417       0.60756958       2.54389106        0      -0.14105556      -0.10790849       0.04123005       0.20989358       0.69484388      -0.64496047       0.22200399       0.67440440      -0.48860243
H       -1.16125492      -1.07152518       2.48838852        0       0.02240956       0.64475573      -0.08384219       2.07607535       1.06232951      -0.75974783       1.54785128       0.73639770      -0.55702880
H        0.03828020       1.21349032      -2.59797031        0      -0.22256308      -0.08288593       0.13287936      -1.39968459       1.34963590      -1.25651339      -1.56512150       1.22253297      -1.32530951
H        1.61985871       1.48433355      -2.15411506        0       0.19519541       0.00750371       0.32299491       1.34230434      -0.06438674       0.07410245       1.23775173      -0.39896823       0.01038180
H        0.74866263      -0.21776430      -2.40321990        0       0.45989744       0.38898354      -0.38874500       1.36754427      -0.49811332      -0.01963679       1.39070393      -0.29301220      -0.01524828
12
Properties=species:S:1:pos:R:3:molID:I:1:momenta:R:3:force_mace:R:3:forces_xtb:R:3 Nmols=1 Comp=DMC(1) energy_mace=-588.4901248050808 energy_xtb=-588.6498346808678 pbc="F F F"
C       -0.17950550      -0.20632884      -0.12875049        0       0.14811266      -1.34307180      -0.97524723      -2.71588518      -0.31720779       0.65029864      -3.00310719      -0.22551788       0.18845022
O       -1.18983876      -0.73072335      -0.60756997        0       1.38274249      -1.16215160       0.88928792       2.94873084       1.12723866       1.17854482       2.89868037       1.05210231       1.08270518
O        0.37292871      -0.51479251       1.08203598        0      -1.39584959       0.20393562      -0.17144588       1.04318221      -0.94125182      -2.75382592       1.40648040      -0.18660748      -2.50539693
O        0.45176732       0.87842030      -0.62246459        0       0.37182104       0.47152013       2.32857295      -0.66559560      -1.48916012      -0.63157853      -0.22409190      -2.37121838       0.16822518
C       -0.23764123      -0.35158776       2.31008017        0      -0.40547390       0.15983914      -1.28142269      -4.92051838       0.21807536      -2.63809298      -4.34580288       0.10681966      -2.33357030
C        0.73920081       0.87455158      -2.02650293        0      -0.30975055       0.87488806      -1.07958674       0.46867977       1.14668288       1.83798059       0.20095272       1.38482500       1.05093130
H        0.48263434      -0.60199513       2.96627853        0      -0.22346646      -0.02721642       0.04147661       2.08499880      -1.26941382       2.68446483       1.86828923      -1.19913828       2.48238248
H       -0.43087516       0.72427762       2.36075601        0       0.33463899       0.24672380      -0.10934397      -0.68256494       0.01793634       0.63665376      -0.67174276      -0.05320973       0.59179845
H       -1.22099924      -1.02414918       2.26897431        0       0.30367471       0.04994806       0.18345143       2.27438239       1.69762018       0.65115131       1.65878534       1.41378403       0.79133714