48
Properties=species:S:1:pos:R:3:molID:I:1:forces_xtb:R:3 Nmols=4 Comp=DMC(4) energy_xtb=-2360.9910213663366 pbc="F F F"
C        3.06814599      -6.70532036       1.61710727        0       0.48527963      -0.24616014      -2.52461496
O        3.35654783      -6.67944145       0.41367328        0      -0.74080263       0.14931216       2.93781253
O        2.47559786      -5.74253559       2.33412218        0      -0.23187592      -0.14309703      -0.45888106
O        3.26557302      -7.74087334       2.42994237        0       0.03932945      -0.07610858       0.16605520
C        2.13413501      -4.55314445       1.63502026        0       0.46052736       0.70959799       1.00857004
C        3.83809900      -8.94601250       1.93196523        0       1.06634127       1.02916038      -0.49047565
H        1.47985792      -3.92312646       2.21925831        0      -0.22339115      -0.17551832       0.99398284
H        3.04210806      -3.96533537       1.53368831        0       0.16848317       0.00723060      -0.69399949
H        1.55800891      -4.68885326       0.75768530        0       0.12512735      -0.62812479      -1.29453078
H        3.97285795      -9.58700752       2.76004124        0      -0.18980926      -0.64301553       1.02295169
H        3.22808003      -9.40219688       1.18470132        0      -0.48140587      -0.20100415      -0.56225037
H        4.85661983      -8.77988243       1.52576530        0      -0.47873855       0.22044567      -0.10299101
C       -5.76868582      -0.28022048      -0.20111772        1       0.50988784      -0.23355484      -1.82272432
O       -5.71252012      -0.23937348      -1.42929578        1      -0.17158780       0.07703580       2.70599501
O       -4.88443327      -0.89572346       0.61052728        1       0.72081512       0.00265603      -0.69697628
O       -6.68166924       0.24970052       0.60555726        1      -0.02283633       0.45559224      -0.00665458
C       -3.66702700      -1.42401147       0.00370728        1      -1.55588737       0.69842326      -0.80287581
C       -7.69325209       1.11279857       0.08553628        1       0.51403630       0.87149503      -0.16402032
H       -3.03574395      -1.75038350       0.78316528        1       0.29652157      -0.61739294       0.81942836
H       -3.95141912      -2.16927242      -0.73599970        1       0.08068002      -0.41056609       0.22454606
H       -3.14179015      -0.66415650      -0.55635071        1       0.02925917       0.59488397      -0.11132281
H       -8.48352718       0.47893453      -0.29956973        1      -0.21986835       0.25635274      -0.29788495
H       -8.05614758       1.76317751       0.90520030        1       0.15870200      -0.68341343      -0.13073713
H       -7.27692699       1.83857751      -0.66853672        1      -0.33379451      -1.00551578       0.28512779
C       -0.50856203       3.84659743       1.70475626        2       0.05557599       2.49246414      -1.29447147
O       -0.77388108       4.85639668       1.02849329        2       0.56850232      -2.99553590       1.71998824
O        0.13834095       2.73716855       1.30301023        2      -0.55429639       0.37699182      -0.04381348
O       -0.69609904       3.70131755       3.01000333        2       0.03566376      -0.48005068       0.42762647
C        0.39570895       2.61996746      -0.08395972        2       0.36016239      -0.33351491      -0.50664558
C       -1.27229500       4.70405340       3.81990218        2       0.44795840       0.80824034       0.09685718
H        0.99972695       1.67851746      -0.23875073        2      -0.55219665       1.17730729       0.22862315
H       -0.53942305       2.54876947      -0.64956874        2       0.02553393      -0.12563277       0.08901357
H        0.89974695       3.53208947      -0.43732673        2       0.16358456      -0.43025654      -0.01520559
H       -2.01291800       5.24535131       3.26631427        2      -0.68117045       0.23262180      -0.36870272
H       -1.70281601       4.25904369       4.71670341        2       0.09342465      -0.23774167      -0.23855063
H       -0.53350705       5.47042274       4.12976551        2       0.02409324      -0.48428472      -0.12000559
C        3.30236793       3.24069262      -3.49689484        3       0.93904948      -0.61566427      -0.99936584
O        4.40056992       3.22705245      -4.01811790        3      -1.35837765       0.16421281       0.95676381
O        2.23404098       3.91849756      -3.92345166        3      -0.36819317       0.30256136       0.34622881
O        2.88660383       2.46682644      -2.46988773        3      -0.57513945       0.26960257      -0.37170019
C        2.32509685       4.87873840      -4.97324896        3       0.77522611      -0.39006865      -0.58798664
C        3.79091501       1.57772648      -1.85638869        3       0.95458426       0.46355378      -0.15171185
H        1.35025096       5.31606960      -5.17438889        3      -0.13032408      -0.35944562       0.27625129
H        3.00865602       5.68633842      -4.72387886        3       0.18335113       0.05503607       0.22013377
H        2.71475005       4.39827251      -5.89341974        3      -0.20274034       0.12785561       0.34801313
H        3.37514091       1.07429051      -1.01633668        3      -1.13922974      -0.40699617       0.31540718
H        4.21296692       0.84034950      -2.53954363        3       0.03000767       0.19459461      -0.17174392
H        4.55689716       2.18190145      -1.39472473        3       0.89995753       0.18543546      -0.15853309
39
Properties=species:S:1:pos:R:3:molID:I:1:forces_xtb:R:3 Nmols=3 Comp=PC(3) energy_xtb=-1927.33541219489 pbc="F F F"
C       -0.51572812       1.39665747      -1.37436116        0       2.13613867     -10.32770149       5.36313818
C        0.97417289       0.66786849      -1.45711911        0      -0.46759897       9.02967725       4.63305637
O        1.24133587       0.55922645       0.07803484        0       5.00236071      -4.41940401      -6.49917516
C        0.45696786       1.27254045       0.59274083        0      -2.10740487       6.91395950      13.01579740
O        0.61206084       1.74833953       1.84505689        0      -0.22843743      -2.75704794      -5.66545764
O       -0.60386610       1.69303453       0.06075684        0      -2.50201086       0.67137509      -4.30012474
C       -1.28174412       0.18764748      -1.80112517        0      -4.41634100       0.33232486       6.98655346
H        1.49991083       0.00174948      -1.89347911        0       1.67059451      -4.89928535      -2.86401385
H        1.72430682       1.70386553      -1.91079521        0      -1.38765060      -2.25669484       1.48970000
H       -2.37878823       0.43213549      -1.58420122        0       1.09547532      -0.37886795      -1.08239292
H       -1.13776517      -0.39227852      -2.56135607        0       1.01121067      -1.68676634      -5.30690642
H       -1.14906716      -0.74924350      -1.02693820        0       0.10838271       2.28012249      -0.59548493
H       -0.36009213       2.10856438      -1.92594218        0       0.31887916       7.89617925      -5.63072535
C        3.88701582      -1.89599156      -1.29325616        1       3.79667354      -6.06942944      -2.95522942
C        2.47541976      -2.49375844      -1.64558017        1      10.92036549      -0.64691626      -9.53499143
O        2.42308879      -1.77071750      -3.04558420        1      -0.86445917       0.61211740       1.30788272
C        3.25604677      -0.67564350      -3.09739518        1       1.66346630      -6.63588497       3.79517509
O        3.22236276       0.28160647      -3.67187524        1      -1.93115080       6.28141249      -5.03118005
O        4.34433174      -0.87762654      -2.34598207        1      -1.57759621      -2.91915030       4.09291564
C        4.31764603      -1.82715547       0.10494784        1      -8.91715252       6.14299340      -3.42055943
H        4.70469570      -3.07912660      -1.56432211        1      -1.62248483       2.61215326      -0.46187970
H        2.52729297      -3.50106645      -2.05283427        1      -0.16136183      -0.18435309       0.76240948
H        1.75606287      -2.22275448      -1.18661821        1      -9.15146640       3.33524438       6.16617766
H        3.86820793      -2.35882759       0.80141187        1      -2.08478545      -2.90891028       2.49993414
H        5.18795395      -1.59216356       0.28212786        1       9.09375038       1.74867997       1.36535823
H        3.75920391      -0.71795654       0.18898185        1       1.06844179      -1.54363609       1.36405035
C       -4.04883289      -0.81695652       1.80823290        2      12.10179061      -2.33636278      -8.00058985
C       -2.34401107      -0.62495351       2.35863590        2       2.08517938       3.65448652      -2.10399358
O       -2.43009806       0.53474247       3.18120694        2      -2.56988712      -1.02915419      -0.45268183
C       -3.88569117       1.08876348       3.11958885        2       4.95027182      -0.34966890       5.57803049
O       -4.06714010       1.87779546       4.10995770        2      -0.81783383      -3.64008378      -6.27865991
O       -4.34807730       0.21200147       2.23269486        2     -10.15079803      14.38442672       6.15181019
C       -3.89773417      -0.71832752       0.16596684        2      -7.89677221      10.69323418       9.07510832
H       -4.16580009      -1.72961557       1.82660079        2      -2.46617024      -8.76108686       2.20544325
H       -1.82351708      -1.43799448       2.77470088        2       0.14363842      -0.74350259       0.79247845
H       -1.37445509      -0.01660352       1.51550281        2      -2.64148071      -2.32781687       1.25553524
H       -3.40270424      -1.10519457      -0.45222116        2       6.65759871      -7.10368222      -8.02594905
H       -5.05141926      -0.52984053      -0.12358715        2       2.60413792      -0.20350234       0.09112989
H       -3.21591020       0.46051049       0.09069784        2      -2.46551301      -2.45947788       0.21831071
10
Properties=species:S:1:pos:R:3:molID:I:1:forces_xtb:R:3 Nmols=1 Comp=EC(1) energy_xtb=-562.1540266813417 pbc="F F F"
C        0.53502518       1.16387153      -0.77493441        0       3.87822724       1.51595364      -0.84487816
O        1.07598519       0.19590655       0.11768059        0      -1.02309124       0.71886914      -0.92310307
C        0.05529921      -0.60928744       0.42983758        0       0.96301070      -2.57713306       0.23867275
O       -1.12286580      -0.23534246      -0.21554741        0       1.28055153      -0.22403144       1.31084471
C       -0.89166379       1.11301255      -0.61777043        0      -2.74802900      -0.62896149      -1.42381987
H        0.95418221       2.12429452      -0.44085941        0       0.13133697       0.02886067      -0.31020330
H        0.84413618       1.01191652      -1.89587343        0      -0.13371701      -0.19891607       1.90786129
O        0.33032820      -1.60748744       1.06779563        0      -1.90197763       1.68944719      -0.98248449
H       -1.41986883       1.79427552       0.02622759        0       0.19161736       0.30991789       0.91498264
H       -1.28897274       1.35159457      -1.61827338        0      -0.63792891      -0.63400648       0.11212751
35
Properties=species:S:1:pos:R:3:molID:I:1:forces_xtb:R:3 Nmols=3 Comp=EC(2):EMC(1) energy_xtb=-1800.722917581803 pbc="F F F"
C        0.23544155      -1.51038897      -1.77194321        0      -4.32996854       1.67034310      -4.22006502
O        1.13928258      -1.55686700      -1.10728121        0       6.19918170      -0.81084890       4.23074238
O       -0.99152845      -1.81270206      -1.52884519        0      -2.71769209      -1.68501903       0.03343913
O        0.13862155      -0.95266598      -2.99690509        0       0.75977001       0.64040321      -1.32235457
C       -1.35965741      -2.53049111      -0.32123917        0       1.21435228       2.77809095       0.26480886
C        1.32274759      -0.38394701      -3.62675405        0       0.33573586      -0.90327723       1.68698255
C       -2.83343339      -2.72873807      -0.27421817        0      -0.25493453      -0.07036875       2.25525477
H       -0.75793147      -3.41944194      -0.21631916        0       0.07376125      -0.34363894      -0.00201554
H       -1.04564941      -1.74263906       0.43565983        0      -0.32476013      -1.20847614       0.04568505
H        1.71597457       0.45419198      -2.92870212        0      -0.23945614      -1.43810352      -1.14803999
H        2.05551052      -1.29330897      -3.74158311        0      -0.88004260       2.00563667       0.00648093
H       -3.02253652      -3.16780996       0.72493184        0      -0.04536132       0.36128436      -0.09754649
H       -3.41336846      -1.81435704      -0.33139718        0       0.23307019       0.06477456      -0.25145329
H       -3.19077349      -3.47160411      -0.90922219        0      -0.43946807      -0.87032724      -1.60615987
H        0.94189358       0.03194600      -4.55890131        0       0.36466597      -0.20966906       0.09571817
C        6.72048044       1.24180496       1.13946486        1      -2.44939882       0.61346553       0.71303963
O        5.21832275       1.24218905       1.32356381        1       2.02242305       1.68368134       0.61719797
C        4.71194172       0.19106199       0.79516083        1      -1.33383818      -2.82587675      -1.27263852
O        5.65715265      -0.67410100       0.33696783        1       1.57406549       0.70638092       0.45834982
C        6.97670555      -0.16567701       0.73599082        1      -0.91727855      -1.47303204      -1.05785740
H        6.88214540       1.98453796       0.37959984        1       0.32040115       0.28085686      -0.42635367
H        7.09837961       1.57924294       2.09655786        1       0.28056252      -0.12181949       0.10676263
O        3.57117748      -0.14044000       0.66601181        1       0.23765415       1.00553768       0.46654610
H        7.61706257      -0.32392800      -0.12562016        1       0.16667767       0.31728581      -0.23065064
H        7.33132935      -0.82404900       1.50991678        1       0.14826630      -0.14334197       0.66645970
C       -6.68185568       1.60430002       1.29877687        2       1.78339195       0.92801099       0.41023591
O       -5.60573435       2.59737396       1.17162287        2      -2.04962596       0.91608548       0.23524346
C       -4.44329643       2.08868003       0.97539383        2      -1.65338841      -4.24449260       0.78605203
O       -4.50859261       0.68971097       1.11523986        2      -1.87133537       0.16995245       0.51777824
C       -5.87373638       0.32137999       1.56014979        2       1.47181540       0.69111386      -0.50136635
H       -7.28056622       1.99286902       2.12400293        2      -0.16821149      -0.40319639      -0.11236716
H       -7.17186260       1.66226602       0.34332582        2      -0.55282059      -0.36118445      -0.27816274
O       -3.43428254       2.56910992       0.73830783        2       3.33581023       2.41988611      -0.88296714
H       -5.80631256       0.03809499       2.61023092        2      -0.07005646       0.11994184       0.08487721
H       -6.16903734      -0.52838999       0.97043383        2      -0.22396793      -0.26005922      -0.27165614
15
Properties=species:S:1:pos:R:3:molID:I:1:forces_xtb:R:3 Nmols=1 Comp=EMC(1) energy_xtb=-676.5693574299889 pbc="F F F"
C        0.01738607       0.54780400       0.02249507        0       1.47897378       1.20383278       1.34211975
O        0.86966306       1.14703798       0.68652409        0      -1.89645474      -1.39957705      -1.55482154
O       -0.11720093      -0.77071905      -0.10109093        0       0.12903755       0.31082563      -0.11716574
O       -0.96263194       1.10551798      -0.68739796        0      -0.27586167      -0.23844470      -0.18421771
C        0.83580607      -1.60144508       0.54295605        0       0.02026331      -0.67304511      -0.16738395
C       -1.08695292       2.51228309      -0.71883494        0       0.30373534       0.40131506       0.51197150
C        0.47389707      -3.05762410       0.26797205        0      -0.08136072      -0.19226687      -0.25064065
H        1.84749007      -1.40194499       0.18571007        0       0.04770073       0.22432169      -0.11988149
H        0.80775905      -1.42857599       1.60876906        0       0.02216736       0.22310558       0.48818900
H       -1.26348889       2.90211391       0.29232907        0      -0.01311556      -0.06484328      -0.07979088
H       -0.15598492       2.94872189      -1.07742691        0       0.05901861       0.14068976      -0.13171070
H        1.18862808      -3.71134710       0.75949508        0       0.04033680       0.05591670       0.07437903
H       -0.52067190      -3.28816795       0.64784706        0       0.06624370       0.10025865      -0.04600912
H        0.49455407      -3.29379106      -0.80179292        0      -0.02951123       0.24165507       0.23822210
H       -1.92199993       2.79396987      -1.36105788        0       0.12882675      -0.33374391      -0.00325960
33
Properties=species:S:1:pos:R:3:molID:I:1:forces_xtb:R:3 Nmols=2 Comp=DEC(1):EMC(1) energy_xtb=-1437.3190073734495 pbc="F F F"
C        0.51682341      -3.70516801       3.95862269        0      -0.18834870       1.39035943      -1.73296479
O        0.85329241      -2.88271904       4.77985954        0      -0.43126868      -1.39181964      -0.85441883
O        0.13290940      -4.97540092       4.08711576        0       0.58582071       0.97978945       1.07095750
O        0.42878541      -3.49186707       2.60010362        0      -0.79735520       1.74945159      -0.03332556
C        0.38603440      -5.46001577       5.40358162        0       1.12426880      -1.39961223      -0.66662563
C        0.51065141      -2.12317801       2.00184655        0       1.13934848       0.71521452       0.19516971
C        0.14692239      -6.94639111       5.38726044        0      -0.62564067      -1.23545892      -0.48817316
H        1.44207644      -5.28509283       5.67109776        0      -0.23813566       0.25325000      -0.03675975
H       -0.24975559      -5.04871416       6.14029551        0      -0.74082253       0.93204019       0.62258507
C       -0.50377959      -0.96312696       2.26406169        0      -0.23050967      -1.09336646       0.63568487
H        1.50796139      -1.75405800       2.34445858        0      -0.48312215      -0.09500363      -0.18326079
H        0.55245441      -2.16056490       0.88041359        0      -0.01115670      -0.92426221       1.01804921
H       -0.16584159      -0.02643997       1.83787358        0       0.25482929      -0.29193113      -0.47901611
H       -1.49661362      -1.20953703       1.90037465        0       0.03734973      -0.06428035      -0.33352734
H       -0.64563459      -0.73056400       3.30573773        0       0.20756648      -0.27255836       0.64477879
H        0.23178940      -7.35089207       6.37672949        0       0.20137290      -0.07778316       0.59778363
H       -0.88612062      -7.17390299       5.07351160        0       0.40038967       0.22914057      -0.09179793
H        0.82280743      -7.53550386       4.74524450        0      -0.20456060       0.60007156       0.11183547
C        0.08311640       3.90127993      -4.03170061        1      -2.04379953       0.21543989      -2.15432290
O        0.08963440       3.49741006      -2.89655948        1       1.11103312       0.17360212      -1.95142281
O       -0.74639660       4.82470512      -4.53137255        1      -1.01948993       0.99547938       0.32838672
O        0.63582641       3.45423102      -5.30794716        1       1.05068405       1.29678275       3.88103819
C       -1.77914059       5.58914280      -3.77355647        1       1.05548421       0.20795666       0.52987212
C        1.70663846       2.53551292      -5.03313637        1      -2.17538698      -1.95489848       0.85740351
C       -2.50481057       6.60677004      -4.69344139        1      -0.42097379      -1.09739579       0.67833398
H       -2.46136355       4.88193512      -3.26627731        1       0.23280860       0.25642221      -0.38784205
H       -1.21302855       6.13905096      -3.00646043        1      -0.15854992      -0.12645366       0.08103615
H        2.16444945       2.67011404      -4.04232359        1      -0.42587011       0.21312145      -0.01677670
H        0.94888538       1.61907208      -4.94184160        1       2.78411429       0.43211741      -0.45757719
H       -3.29159260       7.24773979      -4.21217346        1       1.28776688      -0.57413935       0.00703886
H       -1.78565156       7.15496492      -5.26857138        1       0.18605303       0.44083166       0.04127994
H       -3.04805851       5.97402906      -5.35602522        1      -0.49529988      -0.28074056      -0.91975695
H        2.56522441       2.55116105      -5.70952320        1      -0.96859952      -0.20136691      -0.51366526
23
Properties=species:S:1:pos:R:3:molID:I:1:forces_xtb:R:3 Nmols=2 Comp=EC(1):PC(1) energy_xtb=-1209.787505155777 pbc="F F F"
C        3.38218045      -1.80638027       0.58543891        0      -3.73238137       1.19102965      -0.88652435
O        2.89928365      -0.57204127       1.17961895        0       3.17799890      -1.25835691      -1.16029088
C        1.59319854      -0.53238726       0.98605996        0      -0.40441504       2.65123145       1.90285279
O        1.06374848      -1.72131431       1.02999198        0      -0.57152323      -1.13575002      -0.72238016
C        2.09928346      -2.66820931       0.74778491        0      -0.62498803       0.85716986      -0.22883736
H        3.55760646      -1.72042429      -0.49291807        0       0.00227020       0.70273704      -0.06925578
H        4.15902567      -2.34008837       0.92888796        0       2.94991093      -0.88178476       2.15048931
O        1.05395758       0.52490073       1.05124390        0       0.07056015      -0.64120158      -0.38609055
H        1.86552954      -2.99140334      -0.24567007        0      -0.30328487      -1.36374580      -0.29463213
H        2.05079460      -3.36145735       1.57539797        0       0.35474849      -0.49920049      -0.17733816
C       -2.34452748       1.10882974      -1.86952007        1      -3.39383462       0.63153061       2.59540487
O       -2.55650139       1.12499666      -0.39787707        1      -0.42839092       0.08275562       0.11921808
C       -1.39182150       1.21834075       0.21437894        1       2.03287132       0.93257146       3.24764855
O       -0.41179246       1.21347666      -0.75881809        1       0.63652752       0.06639943       0.51448067
C       -0.96091348       0.72020972      -1.95019805        1       1.35673492       1.53251661      -0.72744043
C       -3.33805847       0.05787371      -2.35847807        1       0.70114050      -0.36888327       0.17241578
H       -2.45896149       2.17649269      -2.12517905        1      -0.57633952      -0.42683121      -0.43467478
O       -1.13809443       1.36087370       1.42333889        1      -2.02472457      -0.38487353      -4.55759974
H       -0.94169348      -0.31403029      -1.97493112        1       0.83511801      -2.36544068      -0.06294173
H       -0.58633250       1.16065276      -2.88414717        1       0.85557480      -0.08300478       0.45501866
H       -4.10455036      -0.24071729      -1.63571405        1       0.36518420       0.48993309       0.10514612
H       -3.83127546       0.48214170      -3.19224405        1      -0.42704946      -0.24462788      -1.11148815
H       -2.72365046      -0.85233831      -2.54261017        1      -0.85170833       0.51582610      -0.44318063
52
Properties=species:S:1:pos:R:3:molID:I:1:forces_xtb:R:3 Nmols=4 Comp=PC(4) energy_xtb=-2595.2387416481947 pbc="F F F"
C       -0.58689159       3.34542823       0.84680033        0      -0.35265529       2.24166123       0.61680091
C       -0.66749859       4.08639097       2.21234131        0       0.06416971      -0.20773257       0.37575379
O       -0.28472957       5.40086508       1.89750433        0       0.15985957       0.10487852      -0.05101656
C        0.21684043       5.44605732       0.63313431        0       0.16161636       2.60357032       0.63616706
O        0.58514345       6.47984838       0.14716233        0      -0.11145140      -0.97503948       0.26871844
O        0.20692644       4.28903103       0.06773333        0      -0.13159533      -1.92542662      -0.57854910
C       -0.04450356       1.98136723       0.74755633        0      -0.21379305      -1.58119364      -1.45711684
H       -1.59859753       3.50811410       0.47509733        0      -0.29162596      -0.76422515      -0.54707485
H       -1.64472759       4.11261415       2.67906237        0      -0.72067935       0.04720530      -0.45666615
H       -0.08053356       3.69455123       3.02948928        0       1.07433520      -0.28178189       0.02178118
H       -0.30662456       1.61757326      -0.29370868        0       0.32927721       0.12294739       1.16371609
H        1.02513039       1.91649616       0.83642435        0       0.46285480       0.44754292       0.01583138
H       -0.42710656       1.27896118       1.48126936        0      -0.43261850       0.17066498       0.00436639
C        3.99964452      -1.34277880       1.25718737        1      -0.40897262      -3.81696529       2.30635262
C        5.23310041      -2.26502991       1.15487731        1       0.33884462      -0.03872047       0.18895521
O        4.73916149      -3.40918374       0.47603431        1       0.97105141      -0.57735703      -0.41284309
C        3.42768145      -3.49677086       0.57203835        1      -2.08887442      -0.83778677      -0.27733101
O        2.71045446      -4.37839699       0.13492633        1       1.67931843       1.63082196       0.80031090
O        2.95797038      -2.42256570       1.23219037        1       0.09517831       1.02228502      -0.52754196
C        3.85749841      -0.33596781       0.26381531        1       0.16837598       3.36341715      -0.34125831
H        6.08696032      -1.89031076       0.58138835        1      -0.24893110       0.14569026      -0.00725890
H        5.59829521      -2.56498885       2.15940523        1      -0.18288173       0.04959719      -0.37653320
H        2.85839844       0.16538021       0.29692432        1       0.88440240      -0.56975362      -0.37285701
H        4.64730167       0.43401521       0.51100636        1      -0.88126245      -0.36159813      -0.20428294
H        4.16733837      -0.71849781      -0.65778667        1      -0.25336407      -0.26347528      -1.76316815
H        3.89782548      -0.95118380       2.24210334        1      -0.05033447       0.37615275       0.99036147
C       -8.27258015      -0.53140777       1.66806328        2       0.17273722       1.54195790       0.80164918
C       -6.84032679      -0.27646181       2.29870844        2      -1.25257849       0.86519373       0.04848928
O       -7.01334047       0.87867421       3.17656827        2      -0.18180145      -1.74369752      -0.69112139
C       -8.30804062       1.24927115       3.19158626        2       0.50078024      -1.23153030      -0.69342364
O       -8.68675423       2.07695127       3.92856741        2      -0.92029511       0.97876953       0.44115511
O       -9.04857635       0.53733319       2.30374742        2       0.55564818      -0.41714680       0.66109822
C       -8.36086273      -0.21012579       0.19138032        2      -1.73698607      -2.40465761       0.05400670
H       -8.72320938      -1.51123476       1.94279730        2       0.35044451       0.63103947      -0.09702393
H       -6.52553749      -1.17991281       2.79770923        2       0.31895561       0.06767958       0.54302919
H       -6.10575151       0.08975021       1.60520029        2       0.32638981      -0.32461747      -0.66443908
H       -7.86621571      -0.94337481      -0.41181368        2       0.43226960      -0.59682636      -0.21165341
H       -9.43764687      -0.26876178      -0.10769367        2       0.84601096       0.44843254       0.24654612
H       -7.92380857       0.69908118       0.00261533        2       0.59113547       2.18008355      -0.44350944
C        3.81360245      -3.51015568      -3.86770964        3      -0.10594038      -0.41782528      -0.20884989
C        3.40305734      -2.31536770      -2.98367763        3      -1.44805054      -0.69064526       0.32142471
O        3.77732754      -1.24553180      -3.76443672        3       1.30919835       1.11098762      -1.14957085
C        4.75905132      -1.62134981      -4.68724871        3       0.47714324       1.35990088      -0.00989405
O        5.35044765      -0.80832380      -5.36861658        3      -1.29956511      -2.18559443       1.45109350
O        4.93213558      -2.95660591      -4.60888577        3      -0.34528028       0.64237602       0.02052313
C        4.11560345      -4.77412271      -3.09613061        3       0.74632798      -0.55786196       0.72593852
H        3.05275846      -3.71814084      -4.63636971        3      -0.14138017       0.07304770       0.16038824
H        2.29932833      -2.21718383      -2.79153275        3       0.73547673      -0.36853788      -0.34776997
H        3.86021543      -2.29974389      -1.97802067        3       0.33845607      -0.16569944      -0.45727346
H        4.42502642      -5.67096663      -3.66590977        3      -0.03871734       0.88938736      -0.16954353
H        4.92098331      -4.54127169      -2.37461877        3      -0.34674623      -0.27618383      -0.26295740