1
Lattice="20.0 0.0 0.0 0.0 20.0 0.0 0.0 0.0 20.0" Properties=species:S:1:pos:R:3:forces_xtb:R:3 config_type=IsolatedAtom energy_xtb=-10.707211383396714 pbc="F F F"
H        0.00000000       0.00000000       0.00000000      -0.00000000      -0.00000000      -0.00000000
1
Lattice="20.0 0.0 0.0 0.0 20.0 0.0 0.0 0.0 20.0" Properties=species:S:1:pos:R:3:forces_xtb:R:3 config_type=IsolatedAtom energy_xtb=-48.847445262804705 pbc="F F F"
C        0.00000000       0.00000000       0.00000000      -0.00000000      -0.00000000      -0.00000000
1
Lattice="20.0 0.0 0.0 0.0 20.0 0.0 0.0 0.0 20.0" Properties=species:S:1:pos:R:3:forces_xtb:R:3 config_type=IsolatedAtom energy_xtb=-102.57117256025786 pbc="F F F"
O        0.00000000       0.00000000       0.00000000      -0.00000000      -0.00000000      -0.00000000
1
Lattice="20.0 0.0 0.0 0.0 20.0 0.0 0.0 0.0 20.0" Properties=species:S:1:pos:R:3:forces_xtb:R:3 config_type=IsolatedAtom energy_xtb=-10.707211383396714 pbc="F F F"
H        0.00000000       0.00000000       0.00000000      -0.00000000      -0.00000000      -0.00000000
1
Lattice="20.0 0.0 0.0 0.0 20.0 0.0 0.0 0.0 20.0" Properties=species:S:1:pos:R:3:forces_xtb:R:3 config_type=IsolatedAtom energy_xtb=-102.57117256025786 pbc="F F F"
O        0.00000000       0.00000000       0.00000000      -0.00000000      -0.00000000      -0.00000000
22
Properties=species:S:1:pos:R:3:molID:I:1:forces_xtb:R:3 Nmols=2 Comp=DMC(1):EC(1) energy_xtb=-1151.6688033579703 pbc="F F F"
C        2.69088602       2.54591513      -2.12696218        0      -1.44302882       4.71896954       1.76744346
O        2.34068704       3.64524508      -1.67616713        0       0.49261950      -2.16502856      -0.87601464
O        1.94911408       1.49887204      -2.25967312        0       0.08290276      -1.50319163      -0.60949423
O        3.84929514       2.26471615      -2.58353305        0       2.38826982      -1.13778665      -0.64777106
C        0.58085805       1.60748911      -2.26327205        0      -1.67246761      -0.37329840      -0.89736654
C        4.93368006       3.14626217      -2.62285423        0       2.55973756      -0.98252846      -1.05991298
H        0.20010208       1.35155511      -1.32161117        0      -0.59307375      -0.34573938       1.76688746
H        0.13602108       2.57295012      -2.51098919        0       0.55033615       0.21276971      -0.24590246
H        0.19209708       0.83466810      -2.94893003        0       0.20277521       0.32784010      -0.10811587
H        5.82548094       2.54683304      -3.02168822        0      -1.01599830      -0.01199392       0.62864621
H        4.87149000       3.85138416      -3.42286325        0      -0.77010801       1.05527897      -0.16147346
H        5.33360624       3.57181811      -1.71259320        0      -0.78097032       0.20739009       0.44230873
C       -3.41220593      -1.40147686       1.27721584        1       3.64054136      -2.81566267       1.08263902
O       -2.92165089      -1.47329795       2.67879891        1      -1.00730296       1.23045966      -1.84974758
C       -2.61571789      -2.75121093       2.98010492        1       2.01716624       2.21029162       2.34244272
O       -3.01706386      -3.61698890       2.14714384        1      -0.84185866      -0.82087526      -3.92810567
C       -2.94653201      -2.85366082       0.89804888        1      -1.06634372      -0.75061646      -0.84421464
H       -4.42421579      -1.24309289       1.20551991        1      -2.15521241       0.42518767       0.11001940
H       -2.80409384      -0.83304894       0.58278483        1      -0.06996537       1.03528950       0.60791017
O       -1.86870396      -2.94726801       3.88132596        1      -0.13940783      -0.44661913       1.10839100
H       -3.50762296      -3.30938387       0.07090886        1      -0.53079339      -0.18326027       0.61016437
H       -1.93009996      -2.85789800       0.47551787        1       0.15218256       0.11312392       0.76126658
27
Properties=species:S:1:pos:R:3:molID:I:1:forces_xtb:R:3 Nmols=2 Comp=DMC(1):EMC(1) energy_xtb=-1265.180028034832 pbc="F F F"
C       -2.03106403       0.65746909       0.26760513        0       0.98555934      -0.42535498      -0.10633788
O       -1.07807493       0.48504212       1.01702011        0      -2.17789891       0.87992234      -2.16891800
O       -3.26775193       0.23020512       0.42069915        0      -0.74313263      -0.38011230      -0.33893217
O       -2.21094799       1.20861411      -0.95951784        0       2.83182507       0.12702591      -0.60351812
C       -3.54576588      -0.43989488       1.59327912        0      -0.55223350       0.92076065       2.17889453
C       -0.96694797       1.71850216      -1.62740982        0      -2.55346537      -0.97363999      -0.17803650
C       -5.02091789      -0.62569290       1.77413309        0      -2.43043276      -3.38432755      -1.10590042
H       -3.05448604      -1.41090190       1.60176313        0       0.36670347       0.08595527       0.39358467
H       -3.22410202       0.31734413       2.37260509        0       0.18724531      -1.36618818       0.08940653
H       -0.72410798       2.40959311      -0.88021588        0       1.32314528       1.44888278       0.16549100
H       -0.25252098       0.92709315      -1.77050185        0       0.18392482      -0.28990190       0.25588645
H       -5.35431385      -1.19761384       2.70942616        0       0.98390135       0.83072053      -1.14347294
H       -5.65353584       0.21069811       1.69021618        0      -0.07093223       1.50044560       0.24868063
H       -5.48677492      -1.27245092       0.88484311        0       1.25100885       0.82632357       1.54819069
H       -1.31561697       2.06881022      -2.61999083        0       0.27156532       0.17735849       0.84257396
C        2.86216998      -0.54789591      -0.30648586        1      -1.29999496       2.83588086       0.24865513
O        2.04342008       0.15615812       0.27660215        1       1.24049576      -2.48924095       0.49428262
O        3.26260614      -0.10306588      -1.49444783        1       0.72998208      -0.98746920      -0.72248560
O        3.59369302      -1.61061084      -0.04163986        1       0.26854721       0.34168970       0.19012287
C        2.62956214       0.98352611      -2.09231687        1      -0.27224153       1.06504974      -0.20527242
C        3.55574894      -2.15067077       1.29780114        1      -1.62342756       0.93331613      -1.30990327
H        1.88944602       0.64559013      -2.80296278        1      -0.24807240      -0.30642385      -0.38656659
H        2.08495712       1.70345008      -1.42564690        1       0.87038645      -0.68158457      -0.08896534
H        3.46013594       1.43517017      -2.62836289        1      -0.20121891       0.54651175      -0.12191244
H        4.11010695      -3.05958986       1.20176017        1       0.94234581      -0.03528665       0.59829777
H        3.79936910      -1.30624783       1.98418510        1      -0.03427572      -1.25933599      -0.12544949
H        2.50926495      -2.46688581       1.28762710        1      -0.22930963       0.05902281       1.35160434
30
Properties=species:S:1:pos:R:3:molID:I:1:forces_xtb:R:3 Nmols=3 Comp=EC(3) energy_xtb=-1687.2692238458048 pbc="F F F"
C       -4.12463999      -1.38331330      -2.42669320        0       0.09104650      -0.15763039       0.98994118
O       -4.85671186      -0.58527428      -3.29135799        0      -0.98012076       1.37422403      -0.74262993
C       -4.90107059      -1.11834621      -4.56758595        0      -1.12794931       0.67673822       1.08467529
O       -4.02001286      -2.08291125      -4.62866592        0       1.45807675      -0.89482105      -0.32429035
C       -3.24393392      -2.16244316      -3.42454815        0      -3.01201907      -1.17568812       0.95868559
H       -3.52626491      -0.84614927      -1.66835916        0      -0.08465048       0.41016128      -0.70877470
H       -4.85408068      -1.92120123      -1.77655911        0       0.41580059      -0.47198054      -0.69237947
O       -5.69529676      -0.78748024      -5.39322805        0       0.89551726      -0.15010949       0.47420076
H       -2.31512570      -1.72622728      -3.47138715        0       2.10108454       0.96385609      -0.69241821
H       -3.18651271      -3.17717123      -3.06380701        0       0.22651304      -0.58505138      -0.34151321
C        0.30978417      -0.65456825      -0.57457012        1       2.58552324      -0.84180302       0.97681712
O       -0.88102782      -1.13273120      -0.17320210        1      -2.67352084      -0.34970297       1.23867786
C       -1.14308679      -2.33998322      -0.65088713        1       1.53931777       0.53508340      -2.08839916
O       -0.15073483      -2.73469424      -1.49947405        1       1.74784525       0.60110252       0.75866028
C        0.98336518      -1.88646221      -1.22591114        1       0.75148662       0.75502601      -0.96806784
H        0.22791818       0.14389074      -1.23837507        1      -0.32078005       1.57333470      -1.09122087
H        0.85364717      -0.37587824       0.35009891        1       0.08096431       0.30423257      -0.47223783
O       -2.14108491      -2.93444228      -0.60166711        1      -2.03810674      -1.00249535       0.83374200
H        1.68404114      -1.63605428      -2.08693218        1      -1.57307414      -0.35718140       0.27611214
H        1.70171022      -2.23403931      -0.50286508        1      -0.08203307      -1.21664304       0.52584898
C        3.67231321       2.92746186       3.89800692        2      -0.55411990      -1.22280470       1.96551821
O        4.82196808       2.26200986       4.53771782        2      -2.75631484      -2.23145319      -0.78421429
C        5.47337103       3.08063078       5.26452112        2       3.23302845       2.21541170       1.04417750
O        5.27526140       4.36545181       4.83315992        2      -0.63050348      -0.47204356      -0.05615252
C        4.28790140       4.29067278       3.83464384        2      -0.82883767       2.07491570      -0.60316602
H        3.43658614       2.38041568       2.99494600        2       0.38128142       0.23686614      -0.39144115
H        2.68566012       2.82074285       4.53663397        2       1.86752376       0.29129061      -0.53946525
O        6.34440804       2.87332678       6.06447983        2      -1.10951032      -0.52041832      -0.39576775
H        4.68179321       4.43559790       2.83605695        2       0.74582793       0.04762879      -0.35222316
H        3.64824009       5.17260456       3.99479294        2      -0.34929678      -0.41004525       0.11730479
46
Properties=species:S:1:pos:R:3:molID:I:1:forces_xtb:R:3 Nmols=3 Comp=DEC(2):EC(1) energy_xtb=-2083.807425680116 pbc="F F F"
C        1.12228513       2.57065392       3.05553150        0      -1.20977410      -2.39165186      -1.96402866
O        0.89510715       3.33680701       3.90915251        0       0.07389339       1.87891231       2.12228931
O        0.83131516       1.22789502       3.08354163        0       1.07191842       2.09452527       4.46538507
O        1.47916710       2.80396104       1.84003460        0       0.98623913      -0.46858633      -1.97824022
C        0.86742717       0.93730795       4.75010538        0      -0.81319099      -0.85065789      -3.67144715
C        1.98150611       4.01263905       1.23323762        0       0.02161256       0.42583203       3.30068805
C        0.80585617      -0.58874100       4.48594856        0       0.13114651       0.64504394       1.71576400
H        1.87435615       1.08331895       5.15053034        0      -0.46296685       1.07036558      -0.26466142
H       -0.02357686       1.61593997       5.10627460        0       1.84082445      -1.74825154      -0.32262755
C        0.86050314       4.98110104       1.04421353        0       0.45615048       1.59126832       0.22788044
H        2.59138203       4.60207987       2.06282258        0      -0.14130671      -1.54446403      -1.60113504
H        2.49448419       3.56533098       0.39430356        0       0.28973623       0.76188372      -0.25665782
H        1.30257308       5.96039391       0.89348656        0       0.19919606       0.41216994       0.30117612
H        0.26657715       4.89897490       0.20957758        0      -1.32638563      -1.03440365      -2.10561990
H        0.17814614       5.04733515       1.87895453        0       0.22857485      -0.20764160       0.52237180
H        1.16012108      -1.13257897       5.37814569        0      -0.81903690       0.08294068      -0.03044869
H       -0.23201686      -0.73150504       4.21799374        0       0.32696534      -0.98221704      -0.27996942
H        1.59177709      -0.83813405       3.75746059        0      -0.90207460       0.24867543      -0.19557377
C       -3.41360188      -0.98489702      -1.42369044        1       0.27889267      -2.38447354       1.18833662
O       -4.55164003      -0.98675704      -1.68807948        1      -3.02753642      -0.71764787      -2.39685745
O       -2.50612378      -1.95843303      -1.43353546        1      -0.70843182      -1.31741138      -1.16796403
O       -2.91195083      -0.18129502      -0.62358844        1       3.22462813       3.26672367       2.67299997
C       -2.94922781      -3.16452909      -2.04602051        1      -1.27077314       0.76728944      -1.56913250
C       -3.65715981       0.89645898      -0.14776742        1       1.67943183      -0.19823206       3.72783325
C       -1.73851287      -4.02535009      -1.99297738        1       0.21330814      -2.70580929      -0.41962040
H       -3.87312388      -3.66752005      -1.60215044        1       1.12425050       0.89133705       0.11339771
H       -3.32941294      -2.82905102      -3.10723448        1       0.84407016      -0.97838960       1.30383604
C       -2.66523385       1.63324594       0.88361657        1      -2.79177186       0.67497055      -0.05093687
H       -3.91746187       1.44909501      -0.97636640        1      -0.99201483       1.68221122      -1.34781737
H       -4.52412081       0.52065700       0.48019758        1       0.61961995       0.37959238      -0.94350639
H       -3.43014789       2.24482489       1.47997653        1       1.54819533      -0.59847384      -0.41156578
H       -2.09312892       0.97019100       1.50268054        1      -0.47345881      -0.69687105       0.30502411
H       -1.89375591       2.26521993       0.49221757        1      -0.17821229       0.44937622      -0.83310846
H       -2.09110880      -5.09659481      -2.20086837        1       0.79553288       1.27893502      -0.37777000
H       -0.93603188      -3.68115592      -2.69023538        1      -0.78725616      -0.49660666       0.66042116
H       -1.35541391      -4.14123487      -0.96314341        1      -0.10895674       0.65930865      -0.46156861
C        2.30126524      -3.24978709      -3.27970552        2      -0.70069159       3.44734292       1.26018599
O        3.00183821      -1.84303808      -3.55832553        2      -0.41289933      -3.40948673      -0.35966592
C        2.96121526      -1.04488206      -2.52093434        2      -2.58537908      -2.03375425       0.55880003
O        2.09142613      -1.54451299      -1.57714641        2       0.62031903      -1.38191785       0.06174988
C        1.89760613      -2.98708797      -1.72157145        2       2.47026606       0.75839265      -0.60444044
H        1.30514014      -3.13057709      -3.81170249        2       1.51684300      -0.68772363      -0.05388566
H        3.03420115      -4.06249380      -3.52643442        2      -1.05763411       0.99043854       0.26563726
O        3.41751218       0.01574698      -2.43227243        2       1.36045106       2.20161277       0.02612078
H        0.90290713      -3.12530494      -1.34257340        2      -0.43058241      -0.45109369      -0.49130924
H        2.63837409      -3.52872992      -1.04472041        2      -0.72173176       0.62661712      -0.64033879
28
Properties=species:S:1:pos:R:3:molID:I:1:forces_xtb:R:3 Nmols=2 Comp=DEC(1):EC(1) energy_xtb=-1323.2198764535422 pbc="F F F"
C       -2.69271064      -3.43359828      -1.77983737        0       0.66027844       1.32549055      -1.97502298
O       -1.74042380      -4.43570709      -1.58081234        0      -1.44025864      -1.91652796      -1.52966722
C       -0.74716073      -4.18112946      -0.79378331        0      -2.33029596       1.52537836       1.47810630
O       -0.96407777      -2.85715818      -0.37321433        0       1.37156947      -0.06175882       1.02017447
C       -2.19258165      -2.25937223      -0.78521335        0       0.75535535      -3.46872506      -1.79930930
H       -2.47542667      -3.12904429      -2.83045435        0      -0.22305612       0.48404697       0.18230370
H       -3.70149064      -3.89200640      -1.90901029        0       0.57493362       0.56614205       1.31824007
O       -0.08213475      -5.03887224      -0.34669232        0       1.61911260       0.48507622       0.29980322
H       -1.93920970      -1.33868325      -1.24031031        0      -0.06656430       0.81174777      -0.68378133
H       -2.88657570      -2.16856623      -0.01745433        0      -0.92804976       0.26565584       1.69896037
C        1.20797420       2.57999182       0.90209669        1       0.09010757       3.20479795      -0.97918431
O        2.35015225       2.27861166       0.94806266        1       1.38207805       0.05089360       0.60479300
O        0.21248426       1.79278970       0.73012364        1      -1.73089884      -1.78195419       1.00921592
O        0.73384327       3.90805078       0.82860065        1       0.93348412      -1.21899944       0.80862935
C        0.51152325       0.36069071       0.99484664        1       1.01748478       0.92213997       0.18897438
C        1.55831325       5.11519289       0.90625966        1       1.05128148      -2.41948287      -0.23561401
C        1.10513222      -0.17191830      -0.35363832        1       0.36213386       0.10662518       1.41879835
H        1.27917027       0.34763870       1.94492769        1      -1.64030664      -0.23754622      -2.26152857
H       -0.47979274      -0.16216730       1.25341463        1       1.50179923       0.90038595      -0.40059946
C        0.61795026       6.21438169       0.74442369        1       1.73486103       4.23678234      -2.89106900
H        2.28481030       5.25321150       1.75024068        1      -1.11430353      -0.85945377       0.09170960
H        2.22707033       5.14149284       0.03855767        1       0.14268611      -0.42182503      -0.14142909
H        1.29849029       7.12016964       1.00572264        1      -1.70165588      -0.82920987       0.36855966
H        0.58555526       6.44813681      -0.41162032        1      -0.91163105      -0.69354092       1.86168961
H       -0.36096776       6.20415878       1.16872764        1      -0.00443641      -0.10818094       0.36291814
H        1.09811223      -1.21446526      -0.20492934        1       0.62511588      -1.45297382       0.03191864
H        0.40842324      -0.02642330      -1.12879837        1      -0.96482771       0.66678280      -0.84690074
H        2.09012222       0.19319570      -0.72667331        1      -0.76599673      -0.08176662       0.99931122
24
Properties=species:S:1:pos:R:3:molID:I:1:forces_xtb:R:3 Nmols=3 Comp=VC(3) energy_xtb=-1602.4909881719873 pbc="F F F"
C       -1.99840021       1.44039643      -2.07863522        0      -0.04649660       2.30680898       0.70444195
C       -2.92875624       2.40149140      -1.75764906        0       1.93644612      -2.05132440      -0.98404927
O       -3.83791423       1.85756648      -0.96126914        0      -1.28525615      -0.68257832       0.72615853
C       -3.50431609       0.50042349      -0.70766711        0       0.47087464       2.40062352      -1.11746187
O       -4.18143320      -0.25652051      -0.11073012        0       0.42626905      -0.19551438       0.11812658
O       -2.31109715       0.37366948      -1.33188415        0       0.10087214      -2.59886784       0.52635407
H       -0.99077320       1.57314551      -2.50139308        0      -1.02763178      -0.51553780       0.14081657
H       -2.99018216       3.31776953      -2.24018121        0      -0.55420574       1.32208288      -0.11873182
C       -0.52565020      -0.84140450       1.98875093        1       0.58652068       2.88914702       4.36252785
C        0.10259880      -1.53866255       1.15023088        1       1.19428334      -3.61375170      -5.64564874
O        1.46650076      -1.58106351       1.26591992        1      -0.84844531       0.40675131       0.43369425
C        1.66662085      -0.86569053       2.38933682        1       1.90645328       0.52481919       2.16237539
O        2.67524171      -0.71595752       3.03985786        1      -0.71177375      -0.37112931      -1.57407310
O        0.53597879      -0.33473051       2.83654594        1      -2.22675536      -0.12001426      -0.29105304
H       -1.53052723      -0.73714650       2.28004599        1      -0.50504705       0.41208861       0.10904594
H       -0.34341919      -1.98326457       0.25210088        1       0.51857286      -0.16554063       0.44347607
C        2.54138875       1.23839951      -0.27334911        2       0.70296690      -0.67885287      -0.39090763
C        1.21390676       1.14022052      -0.56697714        2       3.02050939      -0.74601307       0.13517742
O        1.09367776      -0.04144252      -1.21866417        2      -1.47369810      -1.06747158      -0.12358509
C        2.23001885      -0.72110152      -1.25936210        2       1.88576834      -2.23087247      -1.77070409
O        2.37319684      -1.79196751      -1.85522115        2      -0.23592533       3.17487866       2.09994001
O        3.23350883       0.06251248      -0.67072511        2      -2.69910193       0.85408243      -0.50635263
H        3.24208570       2.02672839      -0.03181112        2      -0.55871080      -0.19626274       0.43575581
H        0.30470681       1.54356945      -0.25162613        2      -0.57648886       0.94244877       0.12467687
23
Properties=species:S:1:pos:R:3:molID:I:1:forces_xtb:R:3 Nmols=2 Comp=EC(1):PC(1) energy_xtb=-1210.1787725123352 pbc="F F F"
C       -1.76160443       1.23492861       0.46132359        0      -0.25903808       2.34021635      -2.15910432
O       -2.54587841       2.08746457       1.28043664        0      -0.52281296      -0.85026653       0.19498604
C       -3.12265348       1.27771258       2.20505452        0       1.63211752       1.91139403       2.55078401
O       -2.37455535       0.14750960       2.27584052        0      -1.27433551      -0.87620049      -0.14998245
C       -1.41163039       0.00998560       1.15090060        0      -0.87739801      -1.79208755       3.54971788
H       -2.45747948       1.06786966      -0.37841642        0       0.67120277      -0.29115204      -0.40043405
H       -0.89234036       1.79812658       0.18767859        0       0.51554205       0.44154685      -0.56148971
O       -3.82933450       1.74045658       3.08035254        0       0.58311529      -1.73337173      -1.88363908
H       -1.65272439      -0.90130138       0.59517759        0      -0.03771672       0.04677273       0.07905472
H       -0.48014337      -0.18873240       1.75833154        0      -0.36486694       0.80914480      -1.21315044
C        2.74355865      -1.25885344      -2.50645447        1       1.71639391       1.20748636       2.35124224
O        2.13420463      -0.06161239      -2.01126647        1      -0.19916339      -0.54766584       0.96901742
C        1.97391963      -0.21875140      -0.68980640        1      -1.95264937       0.67492669       1.31506434
O        2.14870453      -1.50113845      -0.28751642        1       0.74736450      -0.72730515      -1.57358165
C        2.51972961      -2.37885833      -1.50459540        1      -0.28980062       1.08933822       3.68062201
C        2.17633367      -1.77704942      -3.67598939        1      -0.28912787      -2.94673327      -5.17900740
H        3.81672955      -0.91019338      -2.52772832        1      -0.49670148      -0.89593515      -0.44781297
O        1.52035463       0.63394362       0.05490159        1       1.17534711      -1.52443212      -1.39075612
H        1.64172161      -3.09643435      -1.62766945        1       1.09717987       1.10423042      -0.04902047
H        3.44450355      -2.94760251      -1.24848938        1      -0.72040336       0.41677447      -0.03359427
H        1.36910260      -2.49576950      -3.55208349        1      -0.75626474       0.74560455       0.32839141
H        1.96173060      -1.12768638      -4.49844551        1      -0.29524420       0.80434810      -0.18077973
H        2.89069653      -2.50962043      -4.13448143        1       0.19726022       0.59336629       0.20347261
36
Properties=species:S:1:pos:R:3:molID:I:1:forces_xtb:R:3 Nmols=3 Comp=EMC(1):PC(1):VC(1) energy_xtb=-1858.3935929056051 pbc="F F F"
C        1.84258318      -1.79867446       0.14053729        0       1.51319524       3.77325896       0.86463614
O        2.27318120      -2.35043049      -1.00094974        0       1.18685798       0.54313677      -0.99001264
C        1.66926718      -3.50537348      -1.11941469        0      -1.42677422      -0.71625848       1.12505901
O        0.75547022      -3.61064434      -0.05139771        0      -0.01636613      -2.12872773      -0.99364818
C        0.98378021      -2.58170843       0.71550828        0      -2.16702197       0.73025733       2.44863498
O        1.79996514      -4.38100624      -1.88900173        0       0.37320581      -0.42092754      -1.05602981
H        0.39752519      -2.34192038       1.61011529        0       0.26292431      -0.62006016      -0.55392771
H        2.11566925      -0.78652346       0.51822132        0       0.26079740      -1.14553901      -0.86945816
C       -0.16160481       2.38014865      -5.03498650        1      -0.49502289      -2.37607980       1.78092040
O        0.52909422       3.29800963      -4.70217371        1      -0.32048261      -0.83615259      -0.00393015
O       -0.40188980       1.14308953      -4.33600569        1       1.52489170       3.00484139       0.55722068
O       -0.93883282       2.24024343      -6.06787872        1       0.21698756       1.36648238      -1.66107068
C        0.26296520       1.00577259      -3.03389168        1      -0.42888433       0.25947434      -0.80340117
C       -0.86160880       3.35508561      -7.00970364        1       0.58228358      -0.05489268       0.44070374
C       -0.45468682      -0.14613745      -2.37901878        1      -2.30816966      -0.87395411      -0.47681579
H        1.30797422       0.77357453      -3.24668169        1       0.13720526      -0.05882488       0.10562230
H        0.25626719       1.94607759      -2.36533666        1      -0.38158654      -1.09443346      -1.21728075
H       -0.90277183       4.29446840      -6.43747568        1      -0.20363346      -0.20104475      -0.15136437
H        0.12601019       3.39191556      -7.55351686        1      -1.01849745      -0.43861971       0.37236839
H       -0.13197781      -0.26176146      -1.39016473        1       0.62470527      -0.16504689       1.43855774
H       -1.57091582       0.03573755      -2.31496072        1       1.09637725       0.32354799      -0.12033638
H       -0.45712781      -1.16108143      -2.85181761        1       0.73436469       1.08516168      -0.14790856
H       -1.72592986       3.23890662      -7.65716076        1       0.24045114       0.04056757      -0.10280320
C        0.18562819       0.58547658       5.32086420        2       1.88832479       2.57119689       2.71779910
O       -0.93741381       0.93920553       6.09499645        2      -0.80974528       0.16658489       1.04369797
C       -2.04173779       0.42446655       5.51911640        2      -4.75970371       3.14483623       3.31877531
O       -1.69760680      -0.12663245       4.42012930        2      -2.07912392      -2.45140419      -2.21110370
C       -0.35911581       0.04768055       4.08747816        2      -0.02433122      -1.47102016      -0.51215974
C        1.07251716       1.84694254       5.16585207        2       0.62883581      -1.03569531      -0.81951311
H        0.76279920      -0.10239545       5.93575716        2       0.15864534      -0.50664303      -0.01698855
O       -3.22347975       0.67490256       5.94384050        2       5.47751305      -1.65188256      -1.96477765
H       -0.42855182       0.79389954       3.31738734        2       0.86541547      -0.07082542      -1.02356247
H        0.15558620      -0.93888843       3.95924020        2      -0.67061678       0.71381343      -1.02846789
H        0.50975317       2.69320655       4.80070829        2      -0.05105478      -0.11662723      -0.78050712
H        1.41009319       2.20471358       6.11636543        2       0.45227151      -0.28279816       0.58533423
H        1.94508719       1.49753261       4.52197742        2      -1.06423823       0.99429800       0.70573780
34
Properties=species:S:1:pos:R:3:molID:I:1:forces_xtb:R:3 Nmols=3 Comp=DMC(2):EC(1) energy_xtb=-1742.7460376745196 pbc="F F F"
C       -2.32840943       3.64067221      -4.41397333        0      -0.43333373      -0.30911413      -2.14143196
C       -1.85682142       3.73256111      -5.88645744        0       1.81146630      -2.30043571       0.24415650
O       -2.57072544       2.63596129      -6.54577446        0       0.39721825       0.63809273       1.21670571
C       -2.93125939       1.78588223      -5.54165745        0      -1.37564578      -2.33388838      -1.27089155
O       -3.50032234       0.71336317      -5.64487839        0       1.27041260       2.21866370      -0.44926117