160
Lattice="12.85369 0.0 0.0 0.0 12.85369 0.0 0.0 0.0 12.85369" Properties=species:S:1:pos:R:3:forces:R:3 temperature=600 density=0.9266511910359493 virial="35.33596281215595 9.288776036340266 -7.295002755181301 9.288776036340266 4.136503968853437 -0.8573997863637491 -7.295002755181301 -0.8573997863637491 24.877318409485024" energy=-24026.85743478 pbc="T T T"
C       10.49052625       5.10664893       1.11195987      -1.91391000       0.11637000      -2.91216000
C        9.15657030       5.81709809       1.57492407      -0.92868000      -1.64523000      -1.54407000
O        9.49152461       7.05623236       2.10256805       1.93541000       0.04112000       0.60689000
C       10.83035210       7.04022952       2.08786343       3.87056000       6.43774000       1.26376000
O       11.48704712       8.08374349       2.42527279      -1.84756000      -3.55208000      -0.61670000
O       11.44193067       5.98865629       1.51223663       1.37576000       1.23473000       2.49161000
H       10.73288257       5.07735537       0.00961456      -1.37009000       0.04762000       0.16633000
H       10.55444764       4.07449763       1.32454705       0.50999000      -1.27027000       1.51706000
H        8.58004374       5.32455754       2.36560596      -0.23225000      -0.61513000      -0.52750000
H        8.66406831       6.10673028       0.66109098      -1.32642000      -0.73962000      -0.37425000
C        3.38321975       0.18709189       6.96880798      -5.01777000       1.78895000      -0.37569000
C        2.98364994       1.38817925       6.14537490       2.48471000       0.31689000      -2.27708000
O        1.61516899       1.73333938       6.52711664       3.80320000       1.18480000      -8.09710000
C        1.47668332       1.26331850       7.64139017      -0.72073000       1.45142000       7.56886000
O        0.71543639       1.91865103       8.33485960      -1.48794000      -1.88474000       2.19786000
O        2.47715029       0.44989844       8.11258074      -0.13364000      -1.04694000      -0.26617000
H        4.34231068       0.22517737       7.24783589       3.69929000      -0.22303000       1.30962000
H        3.07507824      -0.62646956       6.41545663      -0.45753000      -2.78184000      -0.54026000
H        3.03248111       1.29004132       5.05337681      -0.36051000      -0.49721000      -0.03341000
H        3.91880731       1.99849815       6.31051910      -1.78646000       1.58440000       0.41753000
C        6.67535824       8.59163134       3.03741692       0.16952000      -1.38286000       2.61316000
C        5.95328935       9.41516727       4.13318114       1.32411000       0.20096000      -0.37986000
O        4.65229026       9.31567971       3.67553836      -3.20461000       3.45769000       1.37442000
C        4.45220972       8.59133571       2.63058478      -0.95036000      -1.25973000      -1.66228000
O        3.40185759       8.35126735       2.05882694       0.37097000       0.45350000       0.53682000
O        5.60789785       8.06822909       2.27511598       1.75323000      -1.67060000      -1.59479000
H        7.35842903       7.82465167       3.48088208      -0.62842000       0.06419000      -0.51340000
H        7.25432700       9.26053738       2.48677770       1.10424000       1.02848000      -1.53304000
H        6.44080410      10.42068573       4.08122653      -0.97839000      -0.05560000       0.24759000
H        5.78850504       9.09116430       5.14441949       1.19559000      -0.56120000       0.84107000
C        5.62985196      11.67898485      10.99304125       0.22493000      -1.62782000       1.46109000
C        4.44305791      10.68657715      11.19453569       1.27465000       4.00940000       5.13924000
O        4.33188633       9.90495713      10.13991614       0.65455000      -0.77042000      -1.58267000
C        5.14341691      10.51846374       9.22000325      -1.53623000      -4.97401000      -6.36010000
O        5.20332796       9.94333824       8.07804287       0.49511000       2.72680000       3.42982000
O        5.68016130      11.63168326       9.60728493       1.42100000       1.61350000      -1.69319000
H        6.55966219      11.22006956      11.42214884      -0.29976000       0.34847000      -0.35675000
H        5.50317884      12.66789634      11.41979661      -0.27726000       0.43836000      -0.23611000
H        3.66835316      11.32270627      11.51860293      -2.44591000       0.79052000      -0.84887000
H        4.69510590      10.39256184      12.17992528       0.31183000      -2.56595000       1.02976000
C       12.56997051      12.02271823       4.54890804      -2.67796000       0.38050000       2.76645000
C       11.61054538      11.78888391       3.40913278       2.19501000       1.91949000      -0.49538000
O       12.24655881      12.59078707       2.38876831       0.61883000       1.70713000      -2.65545000
C       11.84665480      12.44344522       1.07500551      -0.49889000      -3.02301000       0.39599000
O       11.19450998      11.45006063       0.75137530      -0.24248000       0.53284000      -0.25103000
O       12.33022348      13.32718782       0.23188057      -0.39097000       1.91274000       2.00874000
C       12.58155167      13.14248030      -1.14536661       0.43785000      -1.78106000      -0.32205000
H       12.41648459      13.00567847       4.92086812       0.08596000       1.69442000       0.07047000
H       13.63102975      11.89110931       4.62556744       0.69535000      -0.80935000      -1.15130000
H       12.10060516      11.52573030       5.42149364       0.39387000      -0.61238000      -0.09456000
H       10.60394721      12.18833803       3.40534094      -0.50900000      -0.31688000       1.10822000
H       11.70616398      10.78323691       3.22140464      -0.51309000      -2.69303000      -1.26694000
H       12.51205178      14.06193045      -1.68873065      -0.33909000       0.89789000      -0.09278000
H       12.00152892      12.33886759      -1.68068424       0.15263000       0.53470000       0.80711000
H       13.62893461      12.87572766      -1.04764000       0.61404000      -0.27217000      -1.02760000
C       10.39510045      13.19908794       7.09005684       1.75194000      -0.87918000      -0.90114000
C        8.91519085      13.15935719       6.72119450       0.53549000       0.27267000       0.49104000
O        8.87318500      12.64257458       5.38879385      -0.77598000       0.12952000      -2.48503000
C        7.78886055      13.06777463       4.63704579       0.03943000      -1.37616000       0.39140000
O        6.86318922      13.67457163       5.11467606      -0.58332000       0.77694000      -0.00042000
O        7.81454223      12.57025971       3.35856637       1.99019000      -0.87990000       1.33339000
C        6.67665647      12.78773131       2.54032617      -1.18893000       0.91936000       0.93984000
H       10.99824700      13.73279885       6.30672727      -0.86940000       0.05144000       0.21281000
H       11.00399260      12.23603807       7.09514690      -1.25734000       0.42076000       0.25351000
H       10.67491243      13.72157758       7.99201312      -0.41013000       0.26114000       0.76648000
H        8.53610983      14.18497881       6.74560366      -0.12324000       0.20134000      -0.09310000
H        8.19795495      12.56274032       7.31578049       0.51528000      -0.06966000       0.27331000
H        5.76831190      12.76230669       3.18996452       0.22567000      -0.23351000      -0.53486000
H        6.61463742      12.04397823       1.71190585       0.41733000       0.50167000       0.48232000
H        6.78012868      13.84515295       2.26673538      -0.47761000      -0.07940000      -0.90078000
C       -0.01885636       4.70457266       9.76014101      -2.17284000       1.14354000      -0.57771000
C        0.61650154       6.01454362       9.29149547      -1.40865000      -1.55631000      -0.99778000
O        1.25562557       6.73148389      10.29917336       0.32920000       1.77805000       1.91791000
C        0.47782308       7.71756757      10.89802677       1.60994000       0.81615000      -0.93554000
O       -0.68787807       7.87102777      10.77236910      -3.54263000      -0.98236000      -0.51263000
O        1.20544476       8.66868920      11.46622414       2.03015000       0.83433000       1.01773000
C        0.54500932       9.88112638      12.04401036      -0.37582000      -1.98215000      -1.78747000
H        0.58689948       4.02377697      10.27968716       1.42656000      -0.79665000       0.85833000
H       -0.53114018       4.07729973       8.97598880       0.45211000       0.86478000       0.25900000
H       -0.77733975       5.09434795      10.43894438      -0.59142000      -0.48986000       0.47032000
H       -0.10092717       6.61487521       8.71724402      -0.22444000       0.18945000       0.29865000
H        1.32988134       5.71250761       8.58563509       1.84927000      -0.00871000      -1.13648000
H       -0.45104884       9.64420717      12.34080206      -1.20737000      -0.10091000      -0.37139000
H        0.63857133      10.74143670      11.39411494      -0.08140000      -0.10892000      -0.66824000
H        0.97495238      10.11282699      12.94867877       1.87492000       0.24191000       2.20488000
C        5.46937364       4.49190836       1.26859493       0.79957000       1.56307000       0.55169000
C        4.02729245       4.14237796       1.65744476       2.03846000      -0.25695000      -0.91173000
O        4.14720452       2.71624820       1.99854314       5.14115000       3.60283000       4.14241000
C        3.39509656       1.83889389       1.63510505      -8.57040000      -2.65584000      -3.70195000
O        2.45186708       2.14128980       0.84272648       1.20064000      -2.10863000       0.53498000
O        3.44705118       0.65703565       2.35018153       2.23608000       0.93152000       0.83650000
C        2.87164289      -0.58760001       2.07554959      -0.63319000      -1.47435000      -0.82701000
H        6.26992716       3.89626836       1.77754964      -0.74464000      -0.08902000      -0.32592000
H        5.68369607       5.53690050       1.66964292      -0.22619000      -0.72550000      -0.90697000
H        5.61441468       4.44609780       0.17217518       0.15818000       0.07123000       0.37381000
H        3.40039228       4.23028435       0.78924227      -0.68321000      -0.00627000      -0.32476000
H        3.73201747       4.86060360       2.43339632      -0.51758000      -1.01347000       0.65909000
H        1.84319345      -0.50383251       1.74483700      -0.44814000       0.13278000      -0.05147000
H        2.94701693      -1.33128880       2.88606472      -0.29666000       1.08459000       1.15911000
H        3.38883681      -1.30347342       1.41525554       0.56890000       0.92370000      -1.19830000
C        2.14384125       8.28721740       6.28181682      -0.11078000      -3.01958000       1.15412000
C        2.07695065       7.44429812       4.98121619      -0.64787000      -0.45772000       3.41039000
O        2.64725602       6.11189747       5.25344449       0.63816000      -0.88896000       0.50505000
C        3.98373129       6.04491689       5.35470586       2.87260000       0.66204000      -1.58091000
O        4.83648365       6.93259272       5.18030700      -1.94056000      -0.28421000       0.39263000
O        4.46970361       4.75774837       5.49149483      -1.61923000      -0.77087000      -0.11683000
C        5.80880103       4.44548084       5.08378864       2.03502000       0.85601000       3.77097000
H        3.05338121       8.35146013       6.85692947       1.88775000      -0.03287000      -0.96989000
H        1.73673919       7.61840135       7.08026233      -1.49850000       1.01199000      -0.31137000
H        1.89007085       9.30621938       6.20177689      -1.41644000       1.18687000      -0.12033000
H        2.73264309       7.88318736       4.35572993       1.67204000       1.47587000      -2.99178000
H        1.04476078       7.27058050       4.61667269       0.56165000       0.10690000       0.10819000
H        6.25729198       3.67807697       5.80909666      -1.34122000      -0.14946000      -1.23847000
H        6.54790106       5.21167644       5.45382067      -0.79204000       0.44079000      -0.80054000
H        6.00586095       4.25804831       4.05398956      -0.44838000      -0.36660000      -1.05550000
C        8.13891795       4.54564963       8.61156098       0.68313000      -1.41454000       0.72964000
C        8.70093270       4.93917821       9.97840952       1.66515000      -0.82046000      -0.85278000
O        8.44409026       4.29839605      11.24120744      -1.68945000      -1.50251000       2.09538000
C        9.01582238       3.11354291      11.59761456       1.19901000      -1.80369000       0.55702000
O        9.72044882       2.39237378      10.92584216       0.12078000       0.26162000      -1.42080000
O        8.83417405       2.72061846      12.91560622      -3.26106000       4.17375000       0.01667000
C        9.22909082       1.54662668      13.57316244      -0.04726000      -1.11245000      -2.57979000
H        7.18512274       4.09084752       8.79302938      -0.79401000      -0.82939000      -0.27824000
H        8.83368561       3.94346711       7.96783533      -0.55852000      -0.04320000       0.78075000
H        7.92174201       5.40860782       8.03918617      -0.19880000       1.43171000      -0.47176000
H        8.53126399       5.96100800      10.12766657      -0.75759000       1.56572000       0.70440000
H        9.74911255       4.85228726       9.96743247       1.90022000       0.10264000      -0.72137000
H       10.25692327       1.72166823      13.66947514       2.09486000      -0.85727000       0.28189000
H        8.94501141       0.67045490      12.93893567       0.67412000       0.20096000       0.30965000
H        8.81630742       1.37095530      14.54242065      -0.91302000       0.69092000       0.79398000
C       11.29694105       3.74539175       5.38853677      -0.97567000       0.48743000      -0.41402000
C       11.60022387       5.30401734       5.45352503      -0.45083000      -2.17684000       0.53318000
O       10.37809502       6.01816836       5.63962076      -3.13240000       0.39236000      -1.36095000
C       10.44163081       7.27797137       6.14193011       4.26565000      -0.74326000       0.26852000
O       11.46391048       7.67499615       6.63857098       2.32610000       0.24489000       1.40238000
O        9.48390237       8.08158407       5.98114330      -4.93447000       1.89889000      -1.43800000
C        9.47280962       9.42259670       6.61138543      -3.08622000      -5.90139000       4.73302000
H       10.34671916       3.74202408       4.84138090      -0.38560000      -0.43896000      -0.07869000
H       11.11965010       3.17718153       6.35785925       0.42732000       1.03033000      -0.74232000
H       11.96996026       3.14819646       4.74213756       0.23875000       0.47942000       0.36075000
H       12.17433393       5.64663245       4.58866450       0.01851000       0.22965000       0.03706000
H       12.01203039       5.44128190       6.39761571       2.25193000       0.48497000       1.40234000
H        9.90178868      10.16385613       6.18582546       4.15527000       4.37943000      -3.44865000
H        9.68628371       9.29537087       7.70379483       0.71461000       0.08333000      -0.78295000
H        8.46328082       9.77086742       6.69205519      -1.42585000      -0.46970000      -0.55013000
C        4.57065648       5.87213759       9.42433836       0.45167000      -0.79642000      -1.27392000
C        5.35276495       6.65613556      10.51712052      -0.04280000      -3.20255000      -0.84715000
O        6.42992988       7.36312707       9.88767532       1.69484000       2.76021000       0.09364000
C        7.15570063       8.18722854      10.76244605      -1.79247000      -1.13023000       4.43817000
O        6.77925462       8.44062619      11.94947147      -0.56013000      -0.25626000      -2.57522000
O        8.40040057       8.49353197      10.47282671       0.18948000      -0.48785000      -2.63998000
C        9.03502580       9.50315077      11.30599004       2.26568000      -1.14724000      -2.32500000
H        3.72082191       5.13108380       9.61599973       0.50157000       1.64786000       0.79401000
H        5.21363661       5.13136658       8.89458638       0.45298000       0.57692000       0.17073000
H        4.31304282       6.60177730       8.64347669      -0.51300000      -0.09608000      -0.00631000
H        5.94345628       5.91506891      11.04257937      -0.34716000      -0.47429000       1.10209000
H        4.64560634       7.13361158      11.14977915      -0.18022000       1.37172000       0.65728000
H        8.36349763      10.30024665      11.36655663      -1.06322000       1.37050000       1.03671000
H        9.88077289       9.84527743      10.62671108      -0.60030000      -0.36805000       0.84030000
H        9.47137002       9.02067467      12.17632624      -0.30994000       0.31461000       0.54801000
